CH-                                                                     
SP        RMP2-FC                                                     6-311++G(d,p)       
Number of atoms                            I               10
Info1-9                                    I   N=           9
          23          19           0           0           0         110
           1           2           1
Charge                                     I               -1
Multiplicity                               I                1
Number of electrons                        I               36
Number of alpha electrons                  I               18
Number of beta electrons                   I               18
Number of basis functions                  I              145
Number of independent functions            I              145
Number of point charges in /Mol/           I                0
Number of translation vectors              I                0
Atomic numbers                             I   N=          10
           6           1           6           1           6           1
           6           1           6           1
Nuclear charges                            R   N=          10
  6.00000000E+00  1.00000000E+00  6.00000000E+00  1.00000000E+00  6.00000000E+00
  1.00000000E+00  6.00000000E+00  1.00000000E+00  6.00000000E+00  1.00000000E+00
Current cartesian coordinates              R   N=          30
  0.00000000E+00  2.16345107E+00  7.02980065E-01  0.00000000E+00  4.11455929E+00
  1.33687736E+00  0.00000000E+00  1.33706250E+00 -1.84042123E+00  0.00000000E+00
  2.54302335E+00 -3.50002597E+00 -2.64946343E-16 -2.16345107E+00  7.02980065E-01
 -5.03888187E-16 -4.11455929E+00  1.33687736E+00 -1.63742931E-16 -1.33706250E+00
 -1.84042123E+00 -3.11430541E-16 -2.54302335E+00 -3.50002597E+00  0.00000000E+00
 -3.42113883E-49  2.27487505E+00  0.00000000E+00  0.00000000E+00  4.32634095E+00
Force Field                                I                0
Int Atom Types                             I   N=          10
           0           0           0           0           0           0
           0           0           0           0
MM charges                                 R   N=          10
  0.00000000E+00  0.00000000E+00  0.00000000E+00  0.00000000E+00  0.00000000E+00
  0.00000000E+00  0.00000000E+00  0.00000000E+00  0.00000000E+00  0.00000000E+00
Integer atomic weights                     I   N=          10
          12           1          12           1          12           1
          12           1          12           1
Real atomic weights                        R   N=          10
  1.20000000E+01  1.00782504E+00  1.20000000E+01  1.00782504E+00  1.20000000E+01
  1.00782504E+00  1.20000000E+01  1.00782504E+00  1.20000000E+01  1.00782504E+00
Atom fragment info                         I   N=          10
           0           0           0           0           0           0
           0           0           0           0
Atom residue num                           I   N=          10
           0           0           0           0           0           0
           0           0           0           0
Nuclear spins                              I   N=          10
           0           1           0           1           0           1
           0           1           0           1
Nuclear ZEff                               R   N=          10
 -3.60000000E+00 -1.00000000E+00 -3.60000000E+00 -1.00000000E+00 -3.60000000E+00
 -1.00000000E+00 -3.60000000E+00 -1.00000000E+00 -3.60000000E+00 -1.00000000E+00
Nuclear QMom                               R   N=          10
  0.00000000E+00  0.00000000E+00  0.00000000E+00  0.00000000E+00  0.00000000E+00
  0.00000000E+00  0.00000000E+00  0.00000000E+00  0.00000000E+00  0.00000000E+00
Nuclear GFac                               R   N=          10
  0.00000000E+00  2.79284600E+00  0.00000000E+00  2.79284600E+00  0.00000000E+00
  2.79284600E+00  0.00000000E+00  2.79284600E+00  0.00000000E+00  2.79284600E+00
MicOpt                                     I   N=          10
          -1          -1          -1          -1          -1          -1
          -1          -1          -1          -1
Number of contracted shells                I               55
Number of primitive shells                 I              100
Pure/Cartesian d shells                    I                0
Pure/Cartesian f shells                    I                0
Highest angular momentum                   I                2
Largest degree of contraction              I                6
Shell types                                I   N=          55
           0          -1          -1          -1          -1          -2
           0           0           0           0           1           0
          -1          -1          -1          -1          -2           0
           0           0           0           1           0          -1
          -1          -1          -1          -2           0           0
           0           0           1           0          -1          -1
          -1          -1          -2           0           0           0
           0           1           0          -1          -1          -1
          -1          -2           0           0           0           0
           1
Number of primitives per shell             I   N=          55
           6           3           1           1           1           1
           3           1           1           1           1           6
           3           1           1           1           1           3
           1           1           1           1           6           3
           1           1           1           1           3           1
           1           1           1           6           3           1
           1           1           1           3           1           1
           1           1           6           3           1           1
           1           1           3           1           1           1
           1
Shell to atom map                          I   N=          55
           1           1           1           1           1           1
           2           2           2           2           2           3
           3           3           3           3           3           4
           4           4           4           4           5           5
           5           5           5           5           6           6
           6           6           6           7           7           7
           7           7           7           8           8           8
           8           8           9           9           9           9
           9           9          10          10          10          10
          10
Primitive exponents                        R   N=         100
  4.56324000E+03  6.82024000E+02  1.54973000E+02  4.44553000E+01  1.30290000E+01
  1.82773000E+00  2.09642000E+01  4.80331000E+00  1.45933000E+00  4.83456000E-01
  1.45585000E-01  4.38000000E-02  6.26000000E-01  3.38650000E+01  5.09479000E+00
  1.15879000E+00  3.25840000E-01  1.02741000E-01  3.60000000E-02  7.50000000E-01
  4.56324000E+03  6.82024000E+02  1.54973000E+02  4.44553000E+01  1.30290000E+01
  1.82773000E+00  2.09642000E+01  4.80331000E+00  1.45933000E+00  4.83456000E-01
  1.45585000E-01  4.38000000E-02  6.26000000E-01  3.38650000E+01  5.09479000E+00
  1.15879000E+00  3.25840000E-01  1.02741000E-01  3.60000000E-02  7.50000000E-01
  4.56324000E+03  6.82024000E+02  1.54973000E+02  4.44553000E+01  1.30290000E+01
  1.82773000E+00  2.09642000E+01  4.80331000E+00  1.45933000E+00  4.83456000E-01
  1.45585000E-01  4.38000000E-02  6.26000000E-01  3.38650000E+01  5.09479000E+00
  1.15879000E+00  3.25840000E-01  1.02741000E-01  3.60000000E-02  7.50000000E-01
  4.56324000E+03  6.82024000E+02  1.54973000E+02  4.44553000E+01  1.30290000E+01
  1.82773000E+00  2.09642000E+01  4.80331000E+00  1.45933000E+00  4.83456000E-01
  1.45585000E-01  4.38000000E-02  6.26000000E-01  3.38650000E+01  5.09479000E+00
  1.15879000E+00  3.25840000E-01  1.02741000E-01  3.60000000E-02  7.50000000E-01
  4.56324000E+03  6.82024000E+02  1.54973000E+02  4.44553000E+01  1.30290000E+01
  1.82773000E+00  2.09642000E+01  4.80331000E+00  1.45933000E+00  4.83456000E-01
  1.45585000E-01  4.38000000E-02  6.26000000E-01  3.38650000E+01  5.09479000E+00
  1.15879000E+00  3.25840000E-01  1.02741000E-01  3.60000000E-02  7.50000000E-01
Contraction coefficients                   R   N=         100
  1.96665025E-03  1.52306019E-02  7.61269097E-02  2.60801033E-01  6.16462078E-01
  2.21006028E-01  1.14660081E-01  9.19999648E-01 -3.03068213E-03  1.00000000E+00
  1.00000000E+00  1.00000000E+00  1.00000000E+00  2.54938145E-02  1.90373109E-01
  8.52161486E-01  1.00000000E+00  1.00000000E+00  1.00000000E+00  1.00000000E+00
  1.96665025E-03  1.52306019E-02  7.61269097E-02  2.60801033E-01  6.16462078E-01
  2.21006028E-01  1.14660081E-01  9.19999648E-01 -3.03068213E-03  1.00000000E+00
  1.00000000E+00  1.00000000E+00  1.00000000E+00  2.54938145E-02  1.90373109E-01
  8.52161486E-01  1.00000000E+00  1.00000000E+00  1.00000000E+00  1.00000000E+00
  1.96665025E-03  1.52306019E-02  7.61269097E-02  2.60801033E-01  6.16462078E-01
  2.21006028E-01  1.14660081E-01  9.19999648E-01 -3.03068213E-03  1.00000000E+00
  1.00000000E+00  1.00000000E+00  1.00000000E+00  2.54938145E-02  1.90373109E-01
  8.52161486E-01  1.00000000E+00  1.00000000E+00  1.00000000E+00  1.00000000E+00
  1.96665025E-03  1.52306019E-02  7.61269097E-02  2.60801033E-01  6.16462078E-01
  2.21006028E-01  1.14660081E-01  9.19999648E-01 -3.03068213E-03  1.00000000E+00
  1.00000000E+00  1.00000000E+00  1.00000000E+00  2.54938145E-02  1.90373109E-01
  8.52161486E-01  1.00000000E+00  1.00000000E+00  1.00000000E+00  1.00000000E+00
  1.96665025E-03  1.52306019E-02  7.61269097E-02  2.60801033E-01  6.16462078E-01
  2.21006028E-01  1.14660081E-01  9.19999648E-01 -3.03068213E-03  1.00000000E+00
  1.00000000E+00  1.00000000E+00  1.00000000E+00  2.54938145E-02  1.90373109E-01
  8.52161486E-01  1.00000000E+00  1.00000000E+00  1.00000000E+00  1.00000000E+00
P(S=P) Contraction coefficients            R   N=         100
  0.00000000E+00  0.00000000E+00  0.00000000E+00  0.00000000E+00  0.00000000E+00
  0.00000000E+00  4.02486927E-02  2.37593957E-01  8.15853851E-01  1.00000000E+00
  1.00000000E+00  1.00000000E+00  0.00000000E+00  0.00000000E+00  0.00000000E+00
  0.00000000E+00  0.00000000E+00  0.00000000E+00  0.00000000E+00  0.00000000E+00
  0.00000000E+00  0.00000000E+00  0.00000000E+00  0.00000000E+00  0.00000000E+00
  0.00000000E+00  4.02486927E-02  2.37593957E-01  8.15853851E-01  1.00000000E+00
  1.00000000E+00  1.00000000E+00  0.00000000E+00  0.00000000E+00  0.00000000E+00
  0.00000000E+00  0.00000000E+00  0.00000000E+00  0.00000000E+00  0.00000000E+00
  0.00000000E+00  0.00000000E+00  0.00000000E+00  0.00000000E+00  0.00000000E+00
  0.00000000E+00  4.02486927E-02  2.37593957E-01  8.15853851E-01  1.00000000E+00
  1.00000000E+00  1.00000000E+00  0.00000000E+00  0.00000000E+00  0.00000000E+00
  0.00000000E+00  0.00000000E+00  0.00000000E+00  0.00000000E+00  0.00000000E+00
  0.00000000E+00  0.00000000E+00  0.00000000E+00  0.00000000E+00  0.00000000E+00
  0.00000000E+00  4.02486927E-02  2.37593957E-01  8.15853851E-01  1.00000000E+00
  1.00000000E+00  1.00000000E+00  0.00000000E+00  0.00000000E+00  0.00000000E+00
  0.00000000E+00  0.00000000E+00  0.00000000E+00  0.00000000E+00  0.00000000E+00
  0.00000000E+00  0.00000000E+00  0.00000000E+00  0.00000000E+00  0.00000000E+00
  0.00000000E+00  4.02486927E-02  2.37593957E-01  8.15853851E-01  1.00000000E+00
  1.00000000E+00  1.00000000E+00  0.00000000E+00  0.00000000E+00  0.00000000E+00
  0.00000000E+00  0.00000000E+00  0.00000000E+00  0.00000000E+00  0.00000000E+00
Coordinates of each shell                  R   N=         165
  0.00000000E+00  2.16345107E+00  7.02980065E-01  0.00000000E+00  2.16345107E+00
  7.02980065E-01  0.00000000E+00  2.16345107E+00  7.02980065E-01  0.00000000E+00
  2.16345107E+00  7.02980065E-01  0.00000000E+00  2.16345107E+00  7.02980065E-01
  0.00000000E+00  2.16345107E+00  7.02980065E-01  0.00000000E+00  4.11455929E+00
  1.33687736E+00  0.00000000E+00  4.11455929E+00  1.33687736E+00  0.00000000E+00
  4.11455929E+00  1.33687736E+00  0.00000000E+00  4.11455929E+00  1.33687736E+00
  0.00000000E+00  4.11455929E+00  1.33687736E+00  0.00000000E+00  1.33706250E+00
 -1.84042123E+00  0.00000000E+00  1.33706250E+00 -1.84042123E+00  0.00000000E+00
  1.33706250E+00 -1.84042123E+00  0.00000000E+00  1.33706250E+00 -1.84042123E+00
  0.00000000E+00  1.33706250E+00 -1.84042123E+00  0.00000000E+00  1.33706250E+00
 -1.84042123E+00  0.00000000E+00  2.54302335E+00 -3.50002597E+00  0.00000000E+00
  2.54302335E+00 -3.50002597E+00  0.00000000E+00  2.54302335E+00 -3.50002597E+00
  0.00000000E+00  2.54302335E+00 -3.50002597E+00  0.00000000E+00  2.54302335E+00
 -3.50002597E+00 -2.64946343E-16 -2.16345107E+00  7.02980065E-01 -2.64946343E-16
 -2.16345107E+00  7.02980065E-01 -2.64946343E-16 -2.16345107E+00  7.02980065E-01
 -2.64946343E-16 -2.16345107E+00  7.02980065E-01 -2.64946343E-16 -2.16345107E+00
  7.02980065E-01 -2.64946343E-16 -2.16345107E+00  7.02980065E-01 -5.03888187E-16
 -4.11455929E+00  1.33687736E+00 -5.03888187E-16 -4.11455929E+00  1.33687736E+00
 -5.03888187E-16 -4.11455929E+00  1.33687736E+00 -5.03888187E-16 -4.11455929E+00
  1.33687736E+00 -5.03888187E-16 -4.11455929E+00  1.33687736E+00 -1.63742931E-16
 -1.33706250E+00 -1.84042123E+00 -1.63742931E-16 -1.33706250E+00 -1.84042123E+00
 -1.63742931E-16 -1.33706250E+00 -1.84042123E+00 -1.63742931E-16 -1.33706250E+00
 -1.84042123E+00 -1.63742931E-16 -1.33706250E+00 -1.84042123E+00 -1.63742931E-16
 -1.33706250E+00 -1.84042123E+00 -3.11430541E-16 -2.54302335E+00 -3.50002597E+00
 -3.11430541E-16 -2.54302335E+00 -3.50002597E+00 -3.11430541E-16 -2.54302335E+00
 -3.50002597E+00 -3.11430541E-16 -2.54302335E+00 -3.50002597E+00 -3.11430541E-16
 -2.54302335E+00 -3.50002597E+00  0.00000000E+00 -9.72832920E-50  2.27487505E+00
  0.00000000E+00 -9.72832920E-50  2.27487505E+00  0.00000000E+00 -9.72832920E-50
  2.27487505E+00  0.00000000E+00 -9.72832920E-50  2.27487505E+00  0.00000000E+00
 -9.72832920E-50  2.27487505E+00  0.00000000E+00 -9.72832920E-50  2.27487505E+00
  0.00000000E+00 -1.85012663E-49  4.32634095E+00  0.00000000E+00 -1.85012663E-49
  4.32634095E+00  0.00000000E+00 -1.85012663E-49  4.32634095E+00  0.00000000E+00
 -1.85012663E-49  4.32634095E+00  0.00000000E+00 -1.85012663E-49  4.32634095E+00
Constraint Structure                       R   N=          30
  0.00000000E+00  2.16345107E+00  7.02980065E-01  0.00000000E+00  4.11455929E+00
  1.33687736E+00  0.00000000E+00  1.33706250E+00 -1.84042123E+00  0.00000000E+00
  2.54302335E+00 -3.50002597E+00 -2.64946343E-16 -2.16345107E+00  7.02980065E-01
 -5.03888187E-16 -4.11455929E+00  1.33687736E+00 -1.63742931E-16 -1.33706250E+00
 -1.84042123E+00 -3.11430541E-16 -2.54302335E+00 -3.50002597E+00  0.00000000E+00
 -9.72832920E-50  2.27487505E+00  0.00000000E+00 -1.85012663E-49  4.32634095E+00
Num ILSW                                   I              100
ILSW                                       I   N=         100
           0           0           0           0           2           0
           0           0           0           0           0          -1
           0           0           0           0           0           0
           0           0           0           0           0           0
           1           0           0           0           0           0
           0           0      100000           0          -1           0
           0           0           0           0           0           0
           0           0           0           1           0           0
           0           0           1           0           0           0
           0           0           4          40           0           0
           0           0           0           0           0           0
           0           0           0           0           0           0
           0           0           0           0           0           0
           0           0           0           0           0           0
           0           0           0           0           0           0
           0           0           0           0           0           0
           0           0           0           0
Num RLSW                                   I               40
RLSW                                       R   N=          40
  1.00000000E+00  1.00000000E+00  1.00000000E+00  1.00000000E+00  1.00000000E+00
  0.00000000E+00  0.00000000E+00  1.00000000E+00  0.00000000E+00  0.00000000E+00
  0.00000000E+00  0.00000000E+00  1.00000000E+00  0.00000000E+00  0.00000000E+00
  0.00000000E+00  0.00000000E+00  1.00000000E+00  0.00000000E+00  0.00000000E+00
  0.00000000E+00  0.00000000E+00  1.00000000E+00  0.00000000E+00  0.00000000E+00
  0.00000000E+00  0.00000000E+00  1.00000000E+00  0.00000000E+00  0.00000000E+00
  0.00000000E+00  0.00000000E+00  0.00000000E+00  0.00000000E+00  0.00000000E+00
  0.00000000E+00  0.00000000E+00  0.00000000E+00  1.00000000E+00  1.00000000E+00
MxBond                                     I                3
NBond                                      I   N=          10
           3           1           3           1           3           1
           3           1           3           1
IBond                                      I   N=          30
           2           3           9           1           0           0
           1           4           7           3           0           0
           6           7           9           5           0           0
           3           5           8           7           0           0
           1           5          10           9           0           0
RBond                                      R   N=          30
  1.00000000E+00  1.50000000E+00  1.50000000E+00  1.00000000E+00  0.00000000E+00
  0.00000000E+00  1.50000000E+00  1.00000000E+00  1.50000000E+00  1.00000000E+00
  0.00000000E+00  0.00000000E+00  1.00000000E+00  1.50000000E+00  1.50000000E+00
  1.00000000E+00  0.00000000E+00  0.00000000E+00  1.50000000E+00  1.50000000E+00
  1.00000000E+00  1.00000000E+00  0.00000000E+00  0.00000000E+00  1.50000000E+00
  1.50000000E+00  1.00000000E+00  1.00000000E+00  0.00000000E+00  0.00000000E+00
Virial Ratio                               R      2.001273793823673E+00
SCF Energy                                 R     -1.922481090316013E+02
MP2 Energy                                 R     -1.929711634112013E+02
Total Energy                               R     -1.929711634112013E+02
Post-SCF wavefunction norm                 R      1.128957465226191E+00
RMS Density                                R      5.092318653448200E-09
External E-field                           R   N=          35
  0.00000000E+00  0.00000000E+00  0.00000000E+00  0.00000000E+00  0.00000000E+00
  0.00000000E+00  0.00000000E+00  0.00000000E+00  0.00000000E+00  0.00000000E+00
  0.00000000E+00  0.00000000E+00  0.00000000E+00  0.00000000E+00  0.00000000E+00
  0.00000000E+00  0.00000000E+00  0.00000000E+00  0.00000000E+00  0.00000000E+00
  0.00000000E+00  0.00000000E+00  0.00000000E+00  0.00000000E+00  0.00000000E+00
  0.00000000E+00  0.00000000E+00  0.00000000E+00  0.00000000E+00  0.00000000E+00
  0.00000000E+00  0.00000000E+00  0.00000000E+00  0.00000000E+00  0.00000000E+00
IOpCl                                      I                0
IROHF                                      I                0
Alpha Orbital Energies                     R   N=         145
 -1.10058741E+01 -1.10051733E+01 -1.10051712E+01 -1.10039381E+01 -1.10039378E+01
 -9.28282796E-01 -7.28202478E-01 -7.28176574E-01 -5.19378875E-01 -5.19377821E-01
 -4.84968102E-01 -3.28287991E-01 -3.28251020E-01 -3.04307878E-01 -3.04300400E-01
 -2.80481043E-01 -7.11977029E-02 -7.11728355E-02  1.56448984E-01  1.56449621E-01
  1.58061561E-01  1.71051096E-01  1.71051555E-01  2.82770791E-01  2.82819996E-01
  2.82821263E-01  3.00658432E-01  3.00658672E-01  3.03291236E-01  3.03294981E-01
  3.16973510E-01  3.16974470E-01  3.31545504E-01  3.33242815E-01  3.33243776E-01
  3.36473448E-01  3.36474609E-01  3.42952663E-01  3.79896419E-01  3.92139416E-01
  3.92140832E-01  4.32976883E-01  4.32977237E-01  4.62201810E-01  4.62204248E-01
  5.14672874E-01  5.81338617E-01  5.81340525E-01  5.90898666E-01  5.90907186E-01
  6.36892394E-01  6.36907808E-01  7.45951424E-01  7.45955181E-01  7.82589841E-01
  8.36440934E-01  9.15545181E-01  9.15551161E-01  9.34466952E-01  9.34468525E-01
  9.43873443E-01  9.63908372E-01  9.63918671E-01  1.03704518E+00  1.04226194E+00
  1.04226271E+00  1.12458874E+00  1.12462173E+00  1.16288325E+00  1.19061905E+00
  1.19061990E+00  1.19459821E+00  1.19460587E+00  1.26251294E+00  1.27750002E+00
  1.27750472E+00  1.31577120E+00  1.31577382E+00  1.37943994E+00  1.44400100E+00
  1.44400546E+00  1.54392623E+00  1.54392921E+00  1.58832871E+00  1.58834876E+00
  1.69355847E+00  2.00266285E+00  2.00266294E+00  2.02237217E+00  2.02241846E+00
  2.02573741E+00  2.02573981E+00  2.02722658E+00  2.17407568E+00  2.18812705E+00
  2.18815469E+00  2.27957263E+00  2.27958774E+00  2.35203947E+00  2.35205298E+00
  2.38181719E+00  2.38187403E+00  2.41805263E+00  2.46693023E+00  2.46694721E+00
  2.53534465E+00  2.53534551E+00  2.72553456E+00  2.79189395E+00  2.79189682E+00
  2.88431932E+00  2.88432501E+00  2.90948172E+00  3.03082466E+00  3.03083836E+00
  3.15525499E+00  3.19427601E+00  3.19432013E+00  3.25777939E+00  3.25780847E+00
  3.26884216E+00  3.26885252E+00  3.29793826E+00  3.32891611E+00  3.41343927E+00
  3.41344136E+00  3.62538873E+00  3.62539195E+00  3.80824712E+00  3.80825885E+00
  3.93969949E+00  3.93970668E+00  4.04703263E+00  4.04710322E+00  4.10785110E+00
  4.69980171E+00  4.69981213E+00  4.70491757E+00  4.70494608E+00  5.34234100E+00
  2.50073677E+01  2.53534715E+01  2.53536014E+01  2.54972230E+01  2.54972435E+01
Alpha MO coefficients                      R   N=       21025
  2.51622250E-01  2.08329077E-01  0.00000000E+00  5.70277177E-05  1.85081836E-05
  2.17644260E-03  0.00000000E+00 -2.37589878E-04 -7.72174672E-05 -3.79698372E-04
  0.00000000E+00  5.59299050E-05  1.82267464E-05 -1.56105339E-04  0.00000000E+00
 -2.54920242E-04 -8.29039718E-05  7.85967603E-05  0.00000000E+00 -3.07067453E-05
 -5.15618312E-05  0.00000000E+00  1.88808916E-04 -2.26874070E-05  2.34947912E-04
  1.48562238E-04  0.00000000E+00 -3.28794988E-05 -1.06890214E-05  2.52070929E-01
  2.08700703E-01  0.00000000E+00  3.53620574E-05 -4.88997985E-05  2.17965392E-03
  0.00000000E+00 -1.47180193E-04  2.02322093E-04 -3.80328855E-04  0.00000000E+00
  3.48956330E-05 -4.80184605E-05 -1.55016347E-04  0.00000000E+00 -1.58137929E-04
  2.17559658E-04  2.81439167E-05  0.00000000E+00  4.95390230E-05 -8.10890867E-05
  0.00000000E+00  1.89118791E-04 -2.29195305E-05  2.35128396E-04  1.48989906E-04
  0.00000000E+00 -2.03194139E-05  2.79311239E-05  2.51622250E-01  2.08329077E-01
  0.00000000E+00 -5.70277177E-05  1.85081836E-05  2.17644260E-03  0.00000000E+00
  2.37589878E-04 -7.72174672E-05 -3.79698372E-04  0.00000000E+00 -5.59299050E-05
  1.82267464E-05 -1.56105339E-04  0.00000000E+00  2.54920242E-04 -8.29039718E-05
  7.85967603E-05  0.00000000E+00  3.07067453E-05 -5.15618312E-05  0.00000000E+00
  1.88808916E-04 -2.26874070E-05  2.34947912E-04  1.48562238E-04  0.00000000E+00
  3.28794988E-05 -1.06890214E-05  2.52070929E-01  2.08700703E-01  0.00000000E+00
 -3.53620574E-05 -4.88997985E-05  2.17965392E-03  0.00000000E+00  1.47180193E-04
  2.02322093E-04 -3.80328855E-04  0.00000000E+00 -3.48956330E-05 -4.80184605E-05
 -1.55016347E-04  0.00000000E+00  1.58137929E-04  2.17559658E-04  2.81439167E-05
  0.00000000E+00 -4.95390230E-05 -8.10890867E-05  0.00000000E+00  1.89118791E-04
 -2.29195305E-05  2.35128396E-04  1.48989906E-04  0.00000000E+00  2.03194139E-05
  2.79311239E-05  2.51985526E-01  2.08630015E-01  0.00000000E+00  0.00000000E+00
  6.04151328E-05  2.17883114E-03  0.00000000E+00  0.00000000E+00 -2.50188109E-04
 -3.80376786E-04  0.00000000E+00  0.00000000E+00  5.96071724E-05 -1.55216205E-04
  0.00000000E+00  0.00000000E+00 -2.68161494E-04 -2.86278125E-06  0.00000000E+00
  0.00000000E+00 -9.90288160E-05  0.00000000E+00  1.89052827E-04 -2.29428269E-05
  2.34861469E-04  1.48593273E-04  0.00000000E+00  0.00000000E+00 -3.45109460E-05
  1.10037327E-01  9.11242386E-02  0.00000000E+00 -3.36953553E-06  1.88461459E-04
  8.47028738E-04  0.00000000E+00 -1.24515650E-04  1.57133129E-04 -9.71420950E-05
  0.00000000E+00  5.04554948E-05 -8.59854684E-05  2.72524353E-04  0.00000000E+00
 -4.26711399E-04  2.46566333E-05 -8.42226538E-06  0.00000000E+00 -6.47993698E-05
 -6.91304497E-05  0.00000000E+00  7.94547051E-05 -3.84635361E-05  1.14984584E-04
  1.94285012E-04  0.00000000E+00 -7.94622192E-06  1.95361116E-05 -2.88062091E-01
 -2.38550450E-01  0.00000000E+00  5.19566268E-06  1.82257314E-04 -2.21676713E-03
  0.00000000E+00  2.01505419E-04 -7.98030232E-05  2.53868833E-04  0.00000000E+00
 -8.17576531E-05  1.01608907E-05 -7.15801790E-04  0.00000000E+00  6.90678626E-04
 -7.87165717E-04 -3.08125831E-05  0.00000000E+00  4.47003185E-06  1.50718637E-04
  0.00000000E+00 -2.07969050E-04  1.00782406E-04 -3.00764477E-04 -5.08678262E-04
  0.00000000E+00  1.28377965E-05  4.48860940E-06  1.10037327E-01  9.11242386E-02
  0.00000000E+00  3.36953553E-06  1.88461459E-04  8.47028738E-04  0.00000000E+00
  1.24515650E-04  1.57133129E-04 -9.71420950E-05  0.00000000E+00 -5.04554948E-05
 -8.59854684E-05  2.72524353E-04  0.00000000E+00  4.26711399E-04  2.46566333E-05
 -8.42226538E-06  0.00000000E+00  6.47993698E-05 -6.91304497E-05  0.00000000E+00
  7.94547051E-05 -3.84635361E-05  1.14984584E-04  1.94285012E-04  0.00000000E+00
  7.94622192E-06  1.95361116E-05 -2.88062091E-01 -2.38550450E-01  0.00000000E+00
 -5.19566268E-06  1.82257314E-04 -2.21676713E-03  0.00000000E+00 -2.01505419E-04
 -7.98030232E-05  2.53868833E-04  0.00000000E+00  8.17576531E-05  1.01608907E-05
 -7.15801790E-04  0.00000000E+00 -6.90678626E-04 -7.87165717E-04 -3.08125831E-05
  0.00000000E+00 -4.47003185E-06  1.50718637E-04  0.00000000E+00 -2.07969050E-04
  1.00782406E-04 -3.00764477E-04 -5.08678262E-04  0.00000000E+00 -1.28377965E-05
  4.48860940E-06  3.56561911E-01  2.95276645E-01  0.00000000E+00  0.00000000E+00
  1.78860642E-04  2.74387265E-03  0.00000000E+00  0.00000000E+00 -2.26762639E-04
 -3.14210132E-04  0.00000000E+00  0.00000000E+00  6.98361553E-05  8.86210514E-04
  0.00000000E+00  0.00000000E+00 -1.28973561E-03  7.89076178E-05  0.00000000E+00
  0.00000000E+00 -1.63123597E-04  0.00000000E+00  2.57420655E-04 -1.24703026E-04
  3.72051546E-04  6.29107106E-04  0.00000000E+00  0.00000000E+00 -4.85251638E-06
  3.38651141E-01  2.80444279E-01  0.00000000E+00  1.79499310E-04 -3.34892595E-06
  2.60622603E-03  0.00000000E+00 -1.85827004E-04 -1.24581366E-04 -2.98474193E-04
  0.00000000E+00  5.30194866E-05  5.05006859E-05  8.41095753E-04  0.00000000E+00
 -1.15005836E-03 -4.26665815E-04  1.07415593E-04  0.00000000E+00  1.26997313E-05
 -1.36020166E-04  0.00000000E+00  2.44499637E-04 -1.18367668E-04  3.53582114E-04
  5.97852068E-04  0.00000000E+00 -2.31749951E-06 -7.92640036E-06  2.09694105E-01
  1.73652272E-01  0.00000000E+00  1.85992820E-04  4.95022240E-06  1.61342361E-03
  0.00000000E+00  5.07240727E-05  2.01869108E-04 -1.84673445E-04  0.00000000E+00
 -4.27631351E-05 -8.19614902E-05  5.22601930E-04  0.00000000E+00 -3.39080447E-04
  6.91042937E-04  1.04993629E-04  0.00000000E+00  2.75387436E-05 -6.22029940E-05
  0.00000000E+00  1.51374542E-04 -7.32824105E-05  2.18609273E-04  3.69820540E-04
  0.00000000E+00  1.27751064E-05  1.28230365E-05 -3.38651141E-01 -2.80444279E-01
  0.00000000E+00  1.79499310E-04  3.34892595E-06 -2.60622603E-03  0.00000000E+00
 -1.85827004E-04  1.24581366E-04  2.98474193E-04  0.00000000E+00  5.30194866E-05
 -5.05006859E-05 -8.41095753E-04  0.00000000E+00 -1.15005836E-03  4.26665815E-04
 -1.07415593E-04  0.00000000E+00  1.26997313E-05  1.36020166E-04  0.00000000E+00
 -2.44499637E-04  1.18367668E-04 -3.53582114E-04 -5.97852068E-04  0.00000000E+00
 -2.31749951E-06  7.92640036E-06 -2.09694105E-01 -1.73652272E-01  0.00000000E+00
  1.85992820E-04 -4.95022240E-06 -1.61342361E-03  0.00000000E+00  5.07240727E-05
 -2.01869108E-04  1.84673445E-04  0.00000000E+00 -4.27631351E-05  8.19614902E-05
 -5.22601930E-04  0.00000000E+00 -3.39080447E-04 -6.91042937E-04 -1.04993629E-04
  0.00000000E+00  2.75387436E-05  6.22029940E-05  0.00000000E+00 -1.51374542E-04
  7.32824105E-05 -2.18609273E-04 -3.69820540E-04  0.00000000E+00  1.27751064E-05
 -1.28230365E-05  0.00000000E+00  0.00000000E+00  0.00000000E+00  1.89434657E-04
  0.00000000E+00  0.00000000E+00  0.00000000E+00  1.97377541E-04  0.00000000E+00
  0.00000000E+00  0.00000000E+00 -1.02348232E-04  0.00000000E+00  0.00000000E+00
  0.00000000E+00  1.63262620E-04  0.00000000E+00  0.00000000E+00  0.00000000E+00
 -8.09454488E-05  0.00000000E+00  0.00000000E+00  0.00000000E+00  0.00000000E+00
  0.00000000E+00  0.00000000E+00  0.00000000E+00  2.21207063E-05  0.00000000E+00
 -2.09763014E-01 -1.73751054E-01  0.00000000E+00 -1.83366004E-04 -1.59524425E-04
 -1.40046046E-03  0.00000000E+00  2.13230509E-04 -1.79768500E-05  2.75189918E-04
  0.00000000E+00 -2.66356928E-04 -9.63735014E-05 -1.70815332E-03  0.00000000E+00
  5.04956038E-04  2.41532699E-04 -1.60912006E-05  0.00000000E+00 -5.80987834E-05
  1.93358178E-04  0.00000000E+00 -1.40188880E-04  9.44205242E-05 -3.64290088E-05
 -2.01553629E-04  0.00000000E+00 -1.41462474E-05  1.24326286E-07  3.38762848E-01
  2.80604414E-01  0.00000000E+00  2.41918677E-04 -2.71264191E-04  2.26120223E-03
  0.00000000E+00 -1.62198706E-04  2.76381670E-04 -4.44724949E-04  0.00000000E+00
  2.72278452E-04 -3.68221154E-04  2.76255523E-03  0.00000000E+00 -5.49375390E-04
  7.07552874E-04  1.85898098E-04  0.00000000E+00 -1.55449083E-04 -2.20263864E-04