Bla-0.2                                                                 
SP        RMP2-FC                                                     6-311++G(d,p)       
Number of atoms                            I               12
Info1-9                                    I   N=           9
          24          21           0           0           0         110
           1           2           1
Charge                                     I                0
Multiplicity                               I                1
Number of electrons                        I               42
Number of alpha electrons                  I               21
Number of beta electrons                   I               21
Number of basis functions                  I              174
Number of independent functions            I              174
Number of point charges in /Mol/           I                0
Number of translation vectors              I                0
Atomic numbers                             I   N=          12
           6           6           6           6           6           6
           1           1           1           1           1           1
Nuclear charges                            R   N=          12
  6.00000000E+00  6.00000000E+00  6.00000000E+00  6.00000000E+00  6.00000000E+00
  6.00000000E+00  1.00000000E+00  1.00000000E+00  1.00000000E+00  1.00000000E+00
  1.00000000E+00  1.00000000E+00
Current cartesian coordinates              R   N=          36
  1.22328020E+00  2.33698840E+00  0.00000000E+00  2.63553142E+00 -1.09102475E-01
 -1.72950895E-16  1.41225123E+00 -2.22788593E+00  0.00000000E+00 -1.41225123E+00
 -2.22788593E+00  3.22759512E-16 -2.63553142E+00 -1.09102475E-01  0.00000000E+00
 -1.22328020E+00  2.33698840E+00 -1.49808618E-16  2.24791238E+00  4.11170580E+00
  0.00000000E+00  4.68479787E+00 -1.09103673E-01 -2.98432401E-16  2.43688549E+00
 -4.00260213E+00  0.00000000E+00 -2.43688549E+00 -4.00260213E+00  5.73722272E-16
 -4.68479787E+00 -1.09103673E-01  0.00000000E+00 -2.24791238E+00  4.11170580E+00
 -2.75289870E-16
Force Field                                I                0
Int Atom Types                             I   N=          12
           0           0           0           0           0           0
           0           0           0           0           0           0
MM charges                                 R   N=          12
  0.00000000E+00  0.00000000E+00  0.00000000E+00  0.00000000E+00  0.00000000E+00
  0.00000000E+00  0.00000000E+00  0.00000000E+00  0.00000000E+00  0.00000000E+00
  0.00000000E+00  0.00000000E+00
Integer atomic weights                     I   N=          12
          12          12          12          12          12          12
           1           1           1           1           1           1
Real atomic weights                        R   N=          12
  1.20000000E+01  1.20000000E+01  1.20000000E+01  1.20000000E+01  1.20000000E+01
  1.20000000E+01  1.00782504E+00  1.00782504E+00  1.00782504E+00  1.00782504E+00
  1.00782504E+00  1.00782504E+00
Atom fragment info                         I   N=          12
           0           0           0           0           0           0
           0           0           0           0           0           0
Atom residue num                           I   N=          12
           0           0           0           0           0           0
           0           0           0           0           0           0
Nuclear spins                              I   N=          12
           0           0           0           0           0           0
           1           1           1           1           1           1
Nuclear ZEff                               R   N=          12
 -3.60000000E+00 -3.60000000E+00 -3.60000000E+00 -3.60000000E+00 -3.60000000E+00
 -3.60000000E+00 -1.00000000E+00 -1.00000000E+00 -1.00000000E+00 -1.00000000E+00
 -1.00000000E+00 -1.00000000E+00
Nuclear QMom                               R   N=          12
  0.00000000E+00  0.00000000E+00  0.00000000E+00  0.00000000E+00  0.00000000E+00
  0.00000000E+00  0.00000000E+00  0.00000000E+00  0.00000000E+00  0.00000000E+00
  0.00000000E+00  0.00000000E+00
Nuclear GFac                               R   N=          12
  0.00000000E+00  0.00000000E+00  0.00000000E+00  0.00000000E+00  0.00000000E+00
  0.00000000E+00  2.79284600E+00  2.79284600E+00  2.79284600E+00  2.79284600E+00
  2.79284600E+00  2.79284600E+00
MicOpt                                     I   N=          12
          -1          -1          -1          -1          -1          -1
          -1          -1          -1          -1          -1          -1
Number of contracted shells                I               66
Number of primitive shells                 I              120
Pure/Cartesian d shells                    I                0
Pure/Cartesian f shells                    I                0
Highest angular momentum                   I                2
Largest degree of contraction              I                6
Shell types                                I   N=          66
           0          -1          -1          -1          -1          -2
           0          -1          -1          -1          -1          -2
           0          -1          -1          -1          -1          -2
           0          -1          -1          -1          -1          -2
           0          -1          -1          -1          -1          -2
           0          -1          -1          -1          -1          -2
           0           0           0           0           1           0
           0           0           0           1           0           0
           0           0           1           0           0           0
           0           1           0           0           0           0
           1           0           0           0           0           1
Number of primitives per shell             I   N=          66
           6           3           1           1           1           1
           6           3           1           1           1           1
           6           3           1           1           1           1
           6           3           1           1           1           1
           6           3           1           1           1           1
           6           3           1           1           1           1
           3           1           1           1           1           3
           1           1           1           1           3           1
           1           1           1           3           1           1
           1           1           3           1           1           1
           1           3           1           1           1           1
Shell to atom map                          I   N=          66
           1           1           1           1           1           1
           2           2           2           2           2           2
           3           3           3           3           3           3
           4           4           4           4           4           4
           5           5           5           5           5           5
           6           6           6           6           6           6
           7           7           7           7           7           8
           8           8           8           8           9           9
           9           9           9          10          10          10
          10          10          11          11          11          11
          11          12          12          12          12          12
Primitive exponents                        R   N=         120
  4.56324000E+03  6.82024000E+02  1.54973000E+02  4.44553000E+01  1.30290000E+01
  1.82773000E+00  2.09642000E+01  4.80331000E+00  1.45933000E+00  4.83456000E-01
  1.45585000E-01  4.38000000E-02  6.26000000E-01  4.56324000E+03  6.82024000E+02
  1.54973000E+02  4.44553000E+01  1.30290000E+01  1.82773000E+00  2.09642000E+01
  4.80331000E+00  1.45933000E+00  4.83456000E-01  1.45585000E-01  4.38000000E-02
  6.26000000E-01  4.56324000E+03  6.82024000E+02  1.54973000E+02  4.44553000E+01
  1.30290000E+01  1.82773000E+00  2.09642000E+01  4.80331000E+00  1.45933000E+00
  4.83456000E-01  1.45585000E-01  4.38000000E-02  6.26000000E-01  4.56324000E+03
  6.82024000E+02  1.54973000E+02  4.44553000E+01  1.30290000E+01  1.82773000E+00
  2.09642000E+01  4.80331000E+00  1.45933000E+00  4.83456000E-01  1.45585000E-01
  4.38000000E-02  6.26000000E-01  4.56324000E+03  6.82024000E+02  1.54973000E+02
  4.44553000E+01  1.30290000E+01  1.82773000E+00  2.09642000E+01  4.80331000E+00
  1.45933000E+00  4.83456000E-01  1.45585000E-01  4.38000000E-02  6.26000000E-01
  4.56324000E+03  6.82024000E+02  1.54973000E+02  4.44553000E+01  1.30290000E+01
  1.82773000E+00  2.09642000E+01  4.80331000E+00  1.45933000E+00  4.83456000E-01
  1.45585000E-01  4.38000000E-02  6.26000000E-01  3.38650000E+01  5.09479000E+00
  1.15879000E+00  3.25840000E-01  1.02741000E-01  3.60000000E-02  7.50000000E-01
  3.38650000E+01  5.09479000E+00  1.15879000E+00  3.25840000E-01  1.02741000E-01
  3.60000000E-02  7.50000000E-01  3.38650000E+01  5.09479000E+00  1.15879000E+00
  3.25840000E-01  1.02741000E-01  3.60000000E-02  7.50000000E-01  3.38650000E+01
  5.09479000E+00  1.15879000E+00  3.25840000E-01  1.02741000E-01  3.60000000E-02
  7.50000000E-01  3.38650000E+01  5.09479000E+00  1.15879000E+00  3.25840000E-01
  1.02741000E-01  3.60000000E-02  7.50000000E-01  3.38650000E+01  5.09479000E+00
  1.15879000E+00  3.25840000E-01  1.02741000E-01  3.60000000E-02  7.50000000E-01
Contraction coefficients                   R   N=         120
  1.96665025E-03  1.52306019E-02  7.61269097E-02  2.60801033E-01  6.16462078E-01
  2.21006028E-01  1.14660081E-01  9.19999648E-01 -3.03068213E-03  1.00000000E+00
  1.00000000E+00  1.00000000E+00  1.00000000E+00  1.96665025E-03  1.52306019E-02
  7.61269097E-02  2.60801033E-01  6.16462078E-01  2.21006028E-01  1.14660081E-01
  9.19999648E-01 -3.03068213E-03  1.00000000E+00  1.00000000E+00  1.00000000E+00
  1.00000000E+00  1.96665025E-03  1.52306019E-02  7.61269097E-02  2.60801033E-01
  6.16462078E-01  2.21006028E-01  1.14660081E-01  9.19999648E-01 -3.03068213E-03
  1.00000000E+00  1.00000000E+00  1.00000000E+00  1.00000000E+00  1.96665025E-03
  1.52306019E-02  7.61269097E-02  2.60801033E-01  6.16462078E-01  2.21006028E-01
  1.14660081E-01  9.19999648E-01 -3.03068213E-03  1.00000000E+00  1.00000000E+00
  1.00000000E+00  1.00000000E+00  1.96665025E-03  1.52306019E-02  7.61269097E-02
  2.60801033E-01  6.16462078E-01  2.21006028E-01  1.14660081E-01  9.19999648E-01
 -3.03068213E-03  1.00000000E+00  1.00000000E+00  1.00000000E+00  1.00000000E+00
  1.96665025E-03  1.52306019E-02  7.61269097E-02  2.60801033E-01  6.16462078E-01
  2.21006028E-01  1.14660081E-01  9.19999648E-01 -3.03068213E-03  1.00000000E+00
  1.00000000E+00  1.00000000E+00  1.00000000E+00  2.54938145E-02  1.90373109E-01
  8.52161486E-01  1.00000000E+00  1.00000000E+00  1.00000000E+00  1.00000000E+00
  2.54938145E-02  1.90373109E-01  8.52161486E-01  1.00000000E+00  1.00000000E+00
  1.00000000E+00  1.00000000E+00  2.54938145E-02  1.90373109E-01  8.52161486E-01
  1.00000000E+00  1.00000000E+00  1.00000000E+00  1.00000000E+00  2.54938145E-02
  1.90373109E-01  8.52161486E-01  1.00000000E+00  1.00000000E+00  1.00000000E+00
  1.00000000E+00  2.54938145E-02  1.90373109E-01  8.52161486E-01  1.00000000E+00
  1.00000000E+00  1.00000000E+00  1.00000000E+00  2.54938145E-02  1.90373109E-01
  8.52161486E-01  1.00000000E+00  1.00000000E+00  1.00000000E+00  1.00000000E+00
P(S=P) Contraction coefficients            R   N=         120
  0.00000000E+00  0.00000000E+00  0.00000000E+00  0.00000000E+00  0.00000000E+00
  0.00000000E+00  4.02486927E-02  2.37593957E-01  8.15853851E-01  1.00000000E+00
  1.00000000E+00  1.00000000E+00  0.00000000E+00  0.00000000E+00  0.00000000E+00
  0.00000000E+00  0.00000000E+00  0.00000000E+00  0.00000000E+00  4.02486927E-02
  2.37593957E-01  8.15853851E-01  1.00000000E+00  1.00000000E+00  1.00000000E+00
  0.00000000E+00  0.00000000E+00  0.00000000E+00  0.00000000E+00  0.00000000E+00
  0.00000000E+00  0.00000000E+00  4.02486927E-02  2.37593957E-01  8.15853851E-01
  1.00000000E+00  1.00000000E+00  1.00000000E+00  0.00000000E+00  0.00000000E+00
  0.00000000E+00  0.00000000E+00  0.00000000E+00  0.00000000E+00  0.00000000E+00
  4.02486927E-02  2.37593957E-01  8.15853851E-01  1.00000000E+00  1.00000000E+00
  1.00000000E+00  0.00000000E+00  0.00000000E+00  0.00000000E+00  0.00000000E+00
  0.00000000E+00  0.00000000E+00  0.00000000E+00  4.02486927E-02  2.37593957E-01
  8.15853851E-01  1.00000000E+00  1.00000000E+00  1.00000000E+00  0.00000000E+00
  0.00000000E+00  0.00000000E+00  0.00000000E+00  0.00000000E+00  0.00000000E+00
  0.00000000E+00  4.02486927E-02  2.37593957E-01  8.15853851E-01  1.00000000E+00
  1.00000000E+00  1.00000000E+00  0.00000000E+00  0.00000000E+00  0.00000000E+00
  0.00000000E+00  0.00000000E+00  0.00000000E+00  0.00000000E+00  0.00000000E+00
  0.00000000E+00  0.00000000E+00  0.00000000E+00  0.00000000E+00  0.00000000E+00
  0.00000000E+00  0.00000000E+00  0.00000000E+00  0.00000000E+00  0.00000000E+00
  0.00000000E+00  0.00000000E+00  0.00000000E+00  0.00000000E+00  0.00000000E+00
  0.00000000E+00  0.00000000E+00  0.00000000E+00  0.00000000E+00  0.00000000E+00
  0.00000000E+00  0.00000000E+00  0.00000000E+00  0.00000000E+00  0.00000000E+00
  0.00000000E+00  0.00000000E+00  0.00000000E+00  0.00000000E+00  0.00000000E+00
  0.00000000E+00  0.00000000E+00  0.00000000E+00  0.00000000E+00  0.00000000E+00
Coordinates of each shell                  R   N=         198
  1.22328020E+00  2.33698840E+00  0.00000000E+00  1.22328020E+00  2.33698840E+00
  0.00000000E+00  1.22328020E+00  2.33698840E+00  0.00000000E+00  1.22328020E+00
  2.33698840E+00  0.00000000E+00  1.22328020E+00  2.33698840E+00  0.00000000E+00
  1.22328020E+00  2.33698840E+00  0.00000000E+00  2.63553142E+00 -1.09102475E-01
 -1.72950895E-16  2.63553142E+00 -1.09102475E-01 -1.72950895E-16  2.63553142E+00
 -1.09102475E-01 -1.72950895E-16  2.63553142E+00 -1.09102475E-01 -1.72950895E-16
  2.63553142E+00 -1.09102475E-01 -1.72950895E-16  2.63553142E+00 -1.09102475E-01
 -1.72950895E-16  1.41225123E+00 -2.22788593E+00  0.00000000E+00  1.41225123E+00
 -2.22788593E+00  0.00000000E+00  1.41225123E+00 -2.22788593E+00  0.00000000E+00
  1.41225123E+00 -2.22788593E+00  0.00000000E+00  1.41225123E+00 -2.22788593E+00
  0.00000000E+00  1.41225123E+00 -2.22788593E+00  0.00000000E+00 -1.41225123E+00
 -2.22788593E+00  3.22759512E-16 -1.41225123E+00 -2.22788593E+00  3.22759512E-16
 -1.41225123E+00 -2.22788593E+00  3.22759512E-16 -1.41225123E+00 -2.22788593E+00
  3.22759512E-16 -1.41225123E+00 -2.22788593E+00  3.22759512E-16 -1.41225123E+00
 -2.22788593E+00  3.22759512E-16 -2.63553142E+00 -1.09102475E-01  0.00000000E+00
 -2.63553142E+00 -1.09102475E-01  0.00000000E+00 -2.63553142E+00 -1.09102475E-01
  0.00000000E+00 -2.63553142E+00 -1.09102475E-01  0.00000000E+00 -2.63553142E+00
 -1.09102475E-01  0.00000000E+00 -2.63553142E+00 -1.09102475E-01  0.00000000E+00
 -1.22328020E+00  2.33698840E+00 -1.49808618E-16 -1.22328020E+00  2.33698840E+00
 -1.49808618E-16 -1.22328020E+00  2.33698840E+00 -1.49808618E-16 -1.22328020E+00
  2.33698840E+00 -1.49808618E-16 -1.22328020E+00  2.33698840E+00 -1.49808618E-16
 -1.22328020E+00  2.33698840E+00 -1.49808618E-16  2.24791238E+00  4.11170580E+00
  0.00000000E+00  2.24791238E+00  4.11170580E+00  0.00000000E+00  2.24791238E+00
  4.11170580E+00  0.00000000E+00  2.24791238E+00  4.11170580E+00  0.00000000E+00
  2.24791238E+00  4.11170580E+00  0.00000000E+00  4.68479787E+00 -1.09103673E-01
 -2.98432401E-16  4.68479787E+00 -1.09103673E-01 -2.98432401E-16  4.68479787E+00
 -1.09103673E-01 -2.98432401E-16  4.68479787E+00 -1.09103673E-01 -2.98432401E-16
  4.68479787E+00 -1.09103673E-01 -2.98432401E-16  2.43688549E+00 -4.00260213E+00
  0.00000000E+00  2.43688549E+00 -4.00260213E+00  0.00000000E+00  2.43688549E+00
 -4.00260213E+00  0.00000000E+00  2.43688549E+00 -4.00260213E+00  0.00000000E+00
  2.43688549E+00 -4.00260213E+00  0.00000000E+00 -2.43688549E+00 -4.00260213E+00
  5.73722272E-16 -2.43688549E+00 -4.00260213E+00  5.73722272E-16 -2.43688549E+00
 -4.00260213E+00  5.73722272E-16 -2.43688549E+00 -4.00260213E+00  5.73722272E-16
 -2.43688549E+00 -4.00260213E+00  5.73722272E-16 -4.68479787E+00 -1.09103673E-01
  0.00000000E+00 -4.68479787E+00 -1.09103673E-01  0.00000000E+00 -4.68479787E+00
 -1.09103673E-01  0.00000000E+00 -4.68479787E+00 -1.09103673E-01  0.00000000E+00
 -4.68479787E+00 -1.09103673E-01  0.00000000E+00 -2.24791238E+00  4.11170580E+00
 -2.75289870E-16 -2.24791238E+00  4.11170580E+00 -2.75289870E-16 -2.24791238E+00
  4.11170580E+00 -2.75289870E-16 -2.24791238E+00  4.11170580E+00 -2.75289870E-16
 -2.24791238E+00  4.11170580E+00 -2.75289870E-16
Constraint Structure                       R   N=          36
  1.22328020E+00  2.33698840E+00  0.00000000E+00  2.63553142E+00 -1.09102475E-01
 -1.72950895E-16  1.41225123E+00 -2.22788593E+00  0.00000000E+00 -1.41225123E+00
 -2.22788593E+00  3.22759512E-16 -2.63553142E+00 -1.09102475E-01  0.00000000E+00
 -1.22328020E+00  2.33698840E+00 -1.49808618E-16  2.24791238E+00  4.11170580E+00
  0.00000000E+00  4.68479787E+00 -1.09103673E-01 -2.98432401E-16  2.43688549E+00
 -4.00260213E+00  0.00000000E+00 -2.43688549E+00 -4.00260213E+00  5.73722272E-16
 -4.68479787E+00 -1.09103673E-01  0.00000000E+00 -2.24791238E+00  4.11170580E+00
 -2.75289870E-16
Num ILSW                                   I              100
ILSW                                       I   N=         100
           0           0           0           0           2           0
           0           0           0           0           0          -1
           0           0           0           0           0           0
           0           0           0           0           0           0
           1           0           0           0           0           0
           0           0      100000           0          -1           0
           0           0           0           0           0           0
           0           0           0           1           0           0
           0           0           1           0           0           0
           0           0           4          40           0           0
           0           0           0           0           0           0
           0           0           0           0           0           0
           0           0           0           0           0           0
           0           0           0           0           0           0
           0           0           0           0           0           0
           0           0           0           0           0           0
           0           0           0           0
Num RLSW                                   I               40
RLSW                                       R   N=          40
  1.00000000E+00  1.00000000E+00  1.00000000E+00  1.00000000E+00  1.00000000E+00
  0.00000000E+00  0.00000000E+00  1.00000000E+00  0.00000000E+00  0.00000000E+00
  0.00000000E+00  0.00000000E+00  1.00000000E+00  0.00000000E+00  0.00000000E+00
  0.00000000E+00  0.00000000E+00  1.00000000E+00  0.00000000E+00  0.00000000E+00
  0.00000000E+00  0.00000000E+00  1.00000000E+00  0.00000000E+00  0.00000000E+00
  0.00000000E+00  0.00000000E+00  1.00000000E+00  0.00000000E+00  0.00000000E+00
  0.00000000E+00  0.00000000E+00  0.00000000E+00  0.00000000E+00  0.00000000E+00
  0.00000000E+00  0.00000000E+00  0.00000000E+00  1.00000000E+00  1.00000000E+00
MxBond                                     I                3
NBond                                      I   N=          12
           3           3           3           3           3           3
           1           1           1           1           1           1
IBond                                      I   N=          36
           2           6           7           1           3           8
           2           4           9           3           5          10
           4           6          11           1           5          12
           1           0           0           2           0           0
           3           0           0           4           0           0
           5           0           0           6           0           0
RBond                                      R   N=          36
  1.00000000E+00  2.00000000E+00  1.00000000E+00  1.00000000E+00  2.00000000E+00
  1.00000000E+00  2.00000000E+00  1.00000000E+00  1.00000000E+00  1.00000000E+00
  2.00000000E+00  1.00000000E+00  2.00000000E+00  1.00000000E+00  1.00000000E+00
  2.00000000E+00  1.00000000E+00  1.00000000E+00  1.00000000E+00  0.00000000E+00
  0.00000000E+00  1.00000000E+00  0.00000000E+00  0.00000000E+00  1.00000000E+00
  0.00000000E+00  0.00000000E+00  1.00000000E+00  0.00000000E+00  0.00000000E+00
  1.00000000E+00  0.00000000E+00  0.00000000E+00  1.00000000E+00  0.00000000E+00
  0.00000000E+00
Virial Ratio                               R      1.999971242031699E+00
SCF Energy                                 R     -2.307294625762396E+02
MP2 Energy                                 R     -2.315477852488383E+02
Total Energy                               R     -2.315477852488383E+02
Post-SCF wavefunction norm                 R      1.138860787584573E+00
RMS Density                                R      4.790090665308532E-09
External E-field                           R   N=          35
  0.00000000E+00  0.00000000E+00  0.00000000E+00  0.00000000E+00  0.00000000E+00
  0.00000000E+00  0.00000000E+00  0.00000000E+00  0.00000000E+00  0.00000000E+00
  0.00000000E+00  0.00000000E+00  0.00000000E+00  0.00000000E+00  0.00000000E+00
  0.00000000E+00  0.00000000E+00  0.00000000E+00  0.00000000E+00  0.00000000E+00
  0.00000000E+00  0.00000000E+00  0.00000000E+00  0.00000000E+00  0.00000000E+00
  0.00000000E+00  0.00000000E+00  0.00000000E+00  0.00000000E+00  0.00000000E+00
  0.00000000E+00  0.00000000E+00  0.00000000E+00  0.00000000E+00  0.00000000E+00
IOpCl                                      I                0
IROHF                                      I                0
Alpha Orbital Energies                     R   N=         174
 -1.12331074E+01 -1.12326403E+01 -1.12326403E+01 -1.12307946E+01 -1.12307946E+01
 -1.12302932E+01 -1.15372143E+00 -1.02537607E+00 -1.02537607E+00 -8.14537373E-01
 -8.14537373E-01 -7.10198218E-01 -6.40967547E-01 -6.17945202E-01 -5.95603221E-01
 -5.95603221E-01 -5.03019888E-01 -4.82953459E-01 -4.82953459E-01 -3.49542693E-01
 -3.49542693E-01  4.23466668E-02  4.90720291E-02  4.90720291E-02  6.64026848E-02
  6.64026848E-02  8.81978565E-02  1.15843728E-01  1.15843728E-01  1.28651178E-01
  1.53916094E-01  1.53916094E-01  1.58268383E-01  1.62944834E-01  1.81091624E-01
  1.81091624E-01  1.83702245E-01  1.83702245E-01  1.92991057E-01  2.09418250E-01
  2.12565067E-01  2.12565067E-01  2.17411715E-01  2.21402799E-01  2.21402799E-01
  2.28422394E-01  2.28422394E-01  2.50407556E-01  2.50407556E-01  2.88851937E-01
  2.88851937E-01  3.03166298E-01  3.33136545E-01  3.34641437E-01  3.72310182E-01
  3.97240354E-01  3.97240354E-01  4.26651816E-01  4.26651816E-01  4.38734051E-01
  4.86589801E-01  4.86589801E-01  5.27467259E-01  5.27467259E-01  5.91537415E-01
  6.22322513E-01  6.96494882E-01  7.08899922E-01  7.10192716E-01  7.10192716E-01
  7.52727583E-01  7.52727583E-01  7.65579362E-01  7.65579362E-01  7.80800329E-01
  8.01779115E-01  8.27050780E-01  8.27050780E-01  8.89789049E-01  9.03090780E-01
  9.03090780E-01  9.76175492E-01  1.00358110E+00  1.00358110E+00  1.01915526E+00
  1.01959830E+00  1.01959830E+00  1.06207810E+00  1.06207810E+00  1.06837912E+00
  1.13177768E+00  1.13177768E+00  1.15770608E+00  1.20021877E+00  1.22056820E+00
  1.22056820E+00  1.27930408E+00  1.32128779E+00  1.32128779E+00  1.40468145E+00
  1.40468145E+00  1.52433036E+00  1.54696186E+00  1.67927618E+00  1.78727675E+00
  1.78727675E+00  1.82574627E+00  1.83707456E+00  1.83850986E+00  1.83850986E+00
  1.87438026E+00  1.87438026E+00  1.96398886E+00  1.96398886E+00  1.99448475E+00
  2.05992217E+00  2.05992217E+00  2.11328730E+00  2.11328730E+00  2.13430386E+00
  2.23239537E+00  2.23239537E+00  2.24199153E+00  2.24228447E+00  2.24228447E+00
  2.30557224E+00  2.39233887E+00  2.39233887E+00  2.39430169E+00  2.39430169E+00
  2.64349805E+00  2.66741957E+00  2.73130465E+00  2.73130465E+00  2.75029722E+00
  2.82552496E+00  2.82552496E+00  2.95497311E+00  2.95497311E+00  2.98528859E+00
  2.99767565E+00  3.01353214E+00  3.01353214E+00  3.05781036E+00  3.05781036E+00
  3.06626735E+00  3.09039102E+00  3.19295828E+00  3.19295828E+00  3.28763287E+00
  3.29880737E+00  3.29880737E+00  3.32580611E+00  3.32580611E+00  3.48168206E+00
  3.48243361E+00  3.68447323E+00  3.68447323E+00  3.99760145E+00  4.01966140E+00
  4.01966140E+00  4.07451121E+00  4.38755076E+00  4.38755076E+00  4.48181706E+00
  4.54220453E+00  4.54220453E+00  5.19042631E+00  2.47333216E+01  2.49257397E+01
  2.49257397E+01  2.55681702E+01  2.55895519E+01  2.55895519E+01
Alpha MO coefficients                      R   N=       30276
  2.29877265E-01  1.90349823E-01  2.28907455E-05 -5.76883044E-05  0.00000000E+00
  2.06619813E-03 -1.97229154E-04 -1.15800017E-04  0.00000000E+00 -4.14994209E-04
  1.30002210E-05 -1.56361344E-07  0.00000000E+00 -8.91050482E-05 -1.09306274E-04
 -1.63410588E-04  0.00000000E+00 -1.27531111E-04  0.00000000E+00  0.00000000E+00
  1.29744903E-04 -2.09715916E-05  2.29877265E-01  1.90349823E-01 -3.85141644E-05
  4.86681193E-05  0.00000000E+00  2.06619813E-03 -1.98900334E-04 -1.12905449E-04
  0.00000000E+00 -4.14994209E-04  6.36469756E-06  1.13367023E-05  0.00000000E+00
 -8.91050476E-05 -1.96170858E-04 -1.29567164E-05  0.00000000E+00 -1.27531111E-04
  0.00000000E+00  0.00000000E+00 -8.30343828E-05  1.01876587E-04  2.29877265E-01
  1.90349823E-01 -6.14049099E-05  9.02018515E-06  0.00000000E+00  2.06619813E-03
 -1.67117969E-06  2.28705467E-04  0.00000000E+00 -4.14994209E-04 -6.63552341E-06
 -1.11803409E-05  0.00000000E+00 -8.91050478E-05 -8.68645829E-05  1.76367304E-04
  0.00000000E+00 -1.27531111E-04  0.00000000E+00  0.00000000E+00 -4.67105206E-05
  1.22848178E-04  2.29877265E-01  1.90349823E-01  6.14049099E-05  9.02018515E-06
  0.00000000E+00  2.06619813E-03  1.67117969E-06  2.28705467E-04  0.00000000E+00
 -4.14994209E-04  6.63552341E-06 -1.11803409E-05  0.00000000E+00 -8.91050478E-05
  8.68645829E-05  1.76367304E-04  0.00000000E+00 -1.27531111E-04  0.00000000E+00
  0.00000000E+00 -4.67105206E-05 -1.22848178E-04  2.29877265E-01  1.90349823E-01
  3.85141644E-05  4.86681193E-05  0.00000000E+00  2.06619813E-03  1.98900334E-04
 -1.12905449E-04  0.00000000E+00 -4.14994209E-04 -6.36469756E-06  1.13367023E-05
  0.00000000E+00 -8.91050476E-05  1.96170858E-04 -1.29567164E-05  0.00000000E+00
 -1.27531111E-04  0.00000000E+00  0.00000000E+00 -8.30343828E-05 -1.01876587E-04
  2.29877265E-01  1.90349823E-01 -2.28907455E-05 -5.76883044E-05  0.00000000E+00
  2.06619813E-03  1.97229154E-04 -1.15800017E-04  0.00000000E+00 -4.14994209E-04
 -1.30002210E-05 -1.56361344E-07  0.00000000E+00 -8.91050482E-05  1.09306274E-04
 -1.63410588E-04  0.00000000E+00 -1.27531111E-04  0.00000000E+00  0.00000000E+00
  1.29744903E-04  2.09715916E-05  1.80349715E-04 -5.56949780E-06  2.52742188E-04
  8.35756715E-05 -2.95589925E-05 -2.43355243E-05  0.00000000E+00  1.80349715E-04
 -5.56949783E-06  2.52742188E-04  8.35756717E-05 -3.58546785E-05 -1.34310763E-05
  0.00000000E+00  1.80349715E-04 -5.56949781E-06  2.52742188E-04  8.35756717E-05
 -6.29568597E-06  3.77666005E-05  0.00000000E+00  1.80349715E-04 -5.56949781E-06
  2.52742188E-04  8.35756717E-05  6.29568597E-06  3.77666005E-05  0.00000000E+00
  1.80349715E-04 -5.56949783E-06  2.52742188E-04  8.35756717E-05  3.58546785E-05
 -1.34310763E-05  0.00000000E+00  1.80349715E-04 -5.56949780E-06  2.52742188E-04
  8.35756715E-05  2.95589925E-05 -2.43355243E-05  0.00000000E+00  5.92020407E-02
  4.90063332E-02  9.57838899E-05 -6.26504811E-05  0.00000000E+00  5.78216451E-04
  4.46971509E-05 -1.83349098E-04  0.00000000E+00  3.97457312E-04 -3.51224785E-04
 -1.11295703E-04  0.00000000E+00 -4.86117603E-03  1.43115613E-03 -1.68920549E-04
  0.00000000E+00 -5.35383213E-05  0.00000000E+00  0.00000000E+00 -4.86293693E-05
 -8.48798811E-05  3.06465703E-01  2.53810903E-01 -3.17818116E-05  4.95035669E-05
  0.00000000E+00  2.56091702E-03 -8.76419281E-05 -3.04456284E-04  0.00000000E+00
 -3.06781914E-04 -3.38737378E-05  3.66962271E-06  0.00000000E+00 -2.19571552E-03
 -1.20050948E-03  2.00445386E-04  0.00000000E+00 -1.77874146E-04  0.00000000E+00
  0.00000000E+00 -7.68568521E-05  1.99216173E-04  2.47263662E-01  2.04804569E-01
  4.33866008E-05  5.43981141E-05  0.00000000E+00  1.98270057E-03  4.00979464E-04
  1.75162597E-04  0.00000000E+00 -7.04239225E-04 -9.93423426E-05 -3.32316731E-04
  0.00000000E+00  2.66546057E-03  8.80220296E-05  2.09440632E-03  0.00000000E+00
 -1.24335824E-04  0.00000000E+00  0.00000000E+00 -2.31920659E-04  1.65842402E-04
 -2.47263662E-01 -2.04804569E-01  4.33866008E-05 -5.43981141E-05  0.00000000E+00
 -1.98270057E-03  4.00979464E-04 -1.75162597E-04  0.00000000E+00  7.04239225E-04
 -9.93423426E-05  3.32316731E-04  0.00000000E+00 -2.66546057E-03  8.80220296E-05
 -2.09440632E-03  0.00000000E+00  1.24335824E-04  0.00000000E+00  0.00000000E+00
  2.31920659E-04  1.65842402E-04 -3.06465703E-01 -2.53810903E-01 -3.17818116E-05
 -4.95035669E-05  0.00000000E+00 -2.56091702E-03 -8.76419281E-05  3.04456284E-04
  0.00000000E+00  3.06781914E-04 -3.38737378E-05 -3.66962271E-06  0.00000000E+00
  2.19571552E-03 -1.20050948E-03 -2.00445386E-04  0.00000000E+00  1.77874146E-04
  0.00000000E+00  0.00000000E+00  7.68568521E-05  1.99216173E-04 -5.92020407E-02
 -4.90063332E-02  9.57838899E-05  6.26504811E-05  0.00000000E+00 -5.78216451E-04
  4.46971509E-05  1.83349098E-04  0.00000000E+00 -3.97457312E-04 -3.51224785E-04