Chair-10                                                                
SP        RMP2-FC                                                     6-311++G(d,p)       
Number of atoms                            I               12
Info1-9                                    I   N=           9
          24          21           0           0           0         110
           1           2           1
Charge                                     I                0
Multiplicity                               I                1
Number of electrons                        I               42
Number of alpha electrons                  I               21
Number of beta electrons                   I               21
Number of basis functions                  I              174
Number of independent functions            I              174
Number of point charges in /Mol/           I                0
Number of translation vectors              I                0
Atomic numbers                             I   N=          12
           6           6           6           6           6           6
           1           1           1           1           1           1
Nuclear charges                            R   N=          12
  6.00000000E+00  6.00000000E+00  6.00000000E+00  6.00000000E+00  6.00000000E+00
  6.00000000E+00  1.00000000E+00  1.00000000E+00  1.00000000E+00  1.00000000E+00
  1.00000000E+00  1.00000000E+00
Current cartesian coordinates              R   N=          36
  7.65688735E-02  2.62622807E+00 -2.46519033E-32 -7.65688735E-02  1.31690852E+00
  2.28420079E+00  7.65688735E-02 -1.31690852E+00  2.28420079E+00 -7.65688735E-02
 -2.62622807E+00  5.39260384E-33  7.65688735E-02 -1.31690852E+00 -2.28420079E+00
 -7.65688735E-02  1.31690852E+00 -2.28420079E+00  6.16723430E-02  4.67628419E+00
  6.24001302E-32 -6.03875049E-02  2.34599660E+00  4.05662218E+00  6.03875049E-02
 -2.34599660E+00  4.05662218E+00 -6.16723430E-02 -4.67628419E+00  1.54074396E-33
  6.03875049E-02 -2.34599660E+00 -4.05662218E+00 -6.03875049E-02  2.34599660E+00
 -4.05662218E+00
Force Field                                I                0
Int Atom Types                             I   N=          12
           0           0           0           0           0           0
           0           0           0           0           0           0
MM charges                                 R   N=          12
  0.00000000E+00  0.00000000E+00  0.00000000E+00  0.00000000E+00  0.00000000E+00
  0.00000000E+00  0.00000000E+00  0.00000000E+00  0.00000000E+00  0.00000000E+00
  0.00000000E+00  0.00000000E+00
Integer atomic weights                     I   N=          12
          12          12          12          12          12          12
           1           1           1           1           1           1
Real atomic weights                        R   N=          12
  1.20000000E+01  1.20000000E+01  1.20000000E+01  1.20000000E+01  1.20000000E+01
  1.20000000E+01  1.00782504E+00  1.00782504E+00  1.00782504E+00  1.00782504E+00
  1.00782504E+00  1.00782504E+00
Atom fragment info                         I   N=          12
           0           0           0           0           0           0
           0           0           0           0           0           0
Atom residue num                           I   N=          12
           0           0           0           0           0           0
           0           0           0           0           0           0
Nuclear spins                              I   N=          12
           0           0           0           0           0           0
           1           1           1           1           1           1
Nuclear ZEff                               R   N=          12
 -3.60000000E+00 -3.60000000E+00 -3.60000000E+00 -3.60000000E+00 -3.60000000E+00
 -3.60000000E+00 -1.00000000E+00 -1.00000000E+00 -1.00000000E+00 -1.00000000E+00
 -1.00000000E+00 -1.00000000E+00
Nuclear QMom                               R   N=          12
  0.00000000E+00  0.00000000E+00  0.00000000E+00  0.00000000E+00  0.00000000E+00
  0.00000000E+00  0.00000000E+00  0.00000000E+00  0.00000000E+00  0.00000000E+00
  0.00000000E+00  0.00000000E+00
Nuclear GFac                               R   N=          12
  0.00000000E+00  0.00000000E+00  0.00000000E+00  0.00000000E+00  0.00000000E+00
  0.00000000E+00  2.79284600E+00  2.79284600E+00  2.79284600E+00  2.79284600E+00
  2.79284600E+00  2.79284600E+00
MicOpt                                     I   N=          12
          -1          -1          -1          -1          -1          -1
          -1          -1          -1          -1          -1          -1
Number of contracted shells                I               66
Number of primitive shells                 I              120
Pure/Cartesian d shells                    I                0
Pure/Cartesian f shells                    I                0
Highest angular momentum                   I                2
Largest degree of contraction              I                6
Shell types                                I   N=          66
           0          -1          -1          -1          -1          -2
           0          -1          -1          -1          -1          -2
           0          -1          -1          -1          -1          -2
           0          -1          -1          -1          -1          -2
           0          -1          -1          -1          -1          -2
           0          -1          -1          -1          -1          -2
           0           0           0           0           1           0
           0           0           0           1           0           0
           0           0           1           0           0           0
           0           1           0           0           0           0
           1           0           0           0           0           1
Number of primitives per shell             I   N=          66
           6           3           1           1           1           1
           6           3           1           1           1           1
           6           3           1           1           1           1
           6           3           1           1           1           1
           6           3           1           1           1           1
           6           3           1           1           1           1
           3           1           1           1           1           3
           1           1           1           1           3           1
           1           1           1           3           1           1
           1           1           3           1           1           1
           1           3           1           1           1           1
Shell to atom map                          I   N=          66
           1           1           1           1           1           1
           2           2           2           2           2           2
           3           3           3           3           3           3
           4           4           4           4           4           4
           5           5           5           5           5           5
           6           6           6           6           6           6
           7           7           7           7           7           8
           8           8           8           8           9           9
           9           9           9          10          10          10
          10          10          11          11          11          11
          11          12          12          12          12          12
Primitive exponents                        R   N=         120
  4.56324000E+03  6.82024000E+02  1.54973000E+02  4.44553000E+01  1.30290000E+01
  1.82773000E+00  2.09642000E+01  4.80331000E+00  1.45933000E+00  4.83456000E-01
  1.45585000E-01  4.38000000E-02  6.26000000E-01  4.56324000E+03  6.82024000E+02
  1.54973000E+02  4.44553000E+01  1.30290000E+01  1.82773000E+00  2.09642000E+01
  4.80331000E+00  1.45933000E+00  4.83456000E-01  1.45585000E-01  4.38000000E-02
  6.26000000E-01  4.56324000E+03  6.82024000E+02  1.54973000E+02  4.44553000E+01
  1.30290000E+01  1.82773000E+00  2.09642000E+01  4.80331000E+00  1.45933000E+00
  4.83456000E-01  1.45585000E-01  4.38000000E-02  6.26000000E-01  4.56324000E+03
  6.82024000E+02  1.54973000E+02  4.44553000E+01  1.30290000E+01  1.82773000E+00
  2.09642000E+01  4.80331000E+00  1.45933000E+00  4.83456000E-01  1.45585000E-01
  4.38000000E-02  6.26000000E-01  4.56324000E+03  6.82024000E+02  1.54973000E+02
  4.44553000E+01  1.30290000E+01  1.82773000E+00  2.09642000E+01  4.80331000E+00
  1.45933000E+00  4.83456000E-01  1.45585000E-01  4.38000000E-02  6.26000000E-01
  4.56324000E+03  6.82024000E+02  1.54973000E+02  4.44553000E+01  1.30290000E+01
  1.82773000E+00  2.09642000E+01  4.80331000E+00  1.45933000E+00  4.83456000E-01
  1.45585000E-01  4.38000000E-02  6.26000000E-01  3.38650000E+01  5.09479000E+00
  1.15879000E+00  3.25840000E-01  1.02741000E-01  3.60000000E-02  7.50000000E-01
  3.38650000E+01  5.09479000E+00  1.15879000E+00  3.25840000E-01  1.02741000E-01
  3.60000000E-02  7.50000000E-01  3.38650000E+01  5.09479000E+00  1.15879000E+00
  3.25840000E-01  1.02741000E-01  3.60000000E-02  7.50000000E-01  3.38650000E+01
  5.09479000E+00  1.15879000E+00  3.25840000E-01  1.02741000E-01  3.60000000E-02
  7.50000000E-01  3.38650000E+01  5.09479000E+00  1.15879000E+00  3.25840000E-01
  1.02741000E-01  3.60000000E-02  7.50000000E-01  3.38650000E+01  5.09479000E+00
  1.15879000E+00  3.25840000E-01  1.02741000E-01  3.60000000E-02  7.50000000E-01
Contraction coefficients                   R   N=         120
  1.96665025E-03  1.52306019E-02  7.61269097E-02  2.60801033E-01  6.16462078E-01
  2.21006028E-01  1.14660081E-01  9.19999648E-01 -3.03068213E-03  1.00000000E+00
  1.00000000E+00  1.00000000E+00  1.00000000E+00  1.96665025E-03  1.52306019E-02
  7.61269097E-02  2.60801033E-01  6.16462078E-01  2.21006028E-01  1.14660081E-01
  9.19999648E-01 -3.03068213E-03  1.00000000E+00  1.00000000E+00  1.00000000E+00
  1.00000000E+00  1.96665025E-03  1.52306019E-02  7.61269097E-02  2.60801033E-01
  6.16462078E-01  2.21006028E-01  1.14660081E-01  9.19999648E-01 -3.03068213E-03
  1.00000000E+00  1.00000000E+00  1.00000000E+00  1.00000000E+00  1.96665025E-03
  1.52306019E-02  7.61269097E-02  2.60801033E-01  6.16462078E-01  2.21006028E-01
  1.14660081E-01  9.19999648E-01 -3.03068213E-03  1.00000000E+00  1.00000000E+00
  1.00000000E+00  1.00000000E+00  1.96665025E-03  1.52306019E-02  7.61269097E-02
  2.60801033E-01  6.16462078E-01  2.21006028E-01  1.14660081E-01  9.19999648E-01
 -3.03068213E-03  1.00000000E+00  1.00000000E+00  1.00000000E+00  1.00000000E+00
  1.96665025E-03  1.52306019E-02  7.61269097E-02  2.60801033E-01  6.16462078E-01
  2.21006028E-01  1.14660081E-01  9.19999648E-01 -3.03068213E-03  1.00000000E+00
  1.00000000E+00  1.00000000E+00  1.00000000E+00  2.54938145E-02  1.90373109E-01
  8.52161486E-01  1.00000000E+00  1.00000000E+00  1.00000000E+00  1.00000000E+00
  2.54938145E-02  1.90373109E-01  8.52161486E-01  1.00000000E+00  1.00000000E+00
  1.00000000E+00  1.00000000E+00  2.54938145E-02  1.90373109E-01  8.52161486E-01
  1.00000000E+00  1.00000000E+00  1.00000000E+00  1.00000000E+00  2.54938145E-02
  1.90373109E-01  8.52161486E-01  1.00000000E+00  1.00000000E+00  1.00000000E+00
  1.00000000E+00  2.54938145E-02  1.90373109E-01  8.52161486E-01  1.00000000E+00
  1.00000000E+00  1.00000000E+00  1.00000000E+00  2.54938145E-02  1.90373109E-01
  8.52161486E-01  1.00000000E+00  1.00000000E+00  1.00000000E+00  1.00000000E+00
P(S=P) Contraction coefficients            R   N=         120
  0.00000000E+00  0.00000000E+00  0.00000000E+00  0.00000000E+00  0.00000000E+00
  0.00000000E+00  4.02486927E-02  2.37593957E-01  8.15853851E-01  1.00000000E+00
  1.00000000E+00  1.00000000E+00  0.00000000E+00  0.00000000E+00  0.00000000E+00
  0.00000000E+00  0.00000000E+00  0.00000000E+00  0.00000000E+00  4.02486927E-02
  2.37593957E-01  8.15853851E-01  1.00000000E+00  1.00000000E+00  1.00000000E+00
  0.00000000E+00  0.00000000E+00  0.00000000E+00  0.00000000E+00  0.00000000E+00
  0.00000000E+00  0.00000000E+00  4.02486927E-02  2.37593957E-01  8.15853851E-01
  1.00000000E+00  1.00000000E+00  1.00000000E+00  0.00000000E+00  0.00000000E+00
  0.00000000E+00  0.00000000E+00  0.00000000E+00  0.00000000E+00  0.00000000E+00
  4.02486927E-02  2.37593957E-01  8.15853851E-01  1.00000000E+00  1.00000000E+00
  1.00000000E+00  0.00000000E+00  0.00000000E+00  0.00000000E+00  0.00000000E+00
  0.00000000E+00  0.00000000E+00  0.00000000E+00  4.02486927E-02  2.37593957E-01
  8.15853851E-01  1.00000000E+00  1.00000000E+00  1.00000000E+00  0.00000000E+00
  0.00000000E+00  0.00000000E+00  0.00000000E+00  0.00000000E+00  0.00000000E+00
  0.00000000E+00  4.02486927E-02  2.37593957E-01  8.15853851E-01  1.00000000E+00
  1.00000000E+00  1.00000000E+00  0.00000000E+00  0.00000000E+00  0.00000000E+00
  0.00000000E+00  0.00000000E+00  0.00000000E+00  0.00000000E+00  0.00000000E+00
  0.00000000E+00  0.00000000E+00  0.00000000E+00  0.00000000E+00  0.00000000E+00
  0.00000000E+00  0.00000000E+00  0.00000000E+00  0.00000000E+00  0.00000000E+00
  0.00000000E+00  0.00000000E+00  0.00000000E+00  0.00000000E+00  0.00000000E+00
  0.00000000E+00  0.00000000E+00  0.00000000E+00  0.00000000E+00  0.00000000E+00
  0.00000000E+00  0.00000000E+00  0.00000000E+00  0.00000000E+00  0.00000000E+00
  0.00000000E+00  0.00000000E+00  0.00000000E+00  0.00000000E+00  0.00000000E+00
  0.00000000E+00  0.00000000E+00  0.00000000E+00  0.00000000E+00  0.00000000E+00
Coordinates of each shell                  R   N=         198
  7.65688735E-02  2.62622807E+00  3.28406766E-32  7.65688735E-02  2.62622807E+00
  3.28406766E-32  7.65688735E-02  2.62622807E+00  3.28406766E-32  7.65688735E-02
  2.62622807E+00  3.28406766E-32  7.65688735E-02  2.62622807E+00  3.28406766E-32
  7.65688735E-02  2.62622807E+00  3.28406766E-32 -7.65688735E-02  1.31690852E+00
  2.28420079E+00 -7.65688735E-02  1.31690852E+00  2.28420079E+00 -7.65688735E-02
  1.31690852E+00  2.28420079E+00 -7.65688735E-02  1.31690852E+00  2.28420079E+00
 -7.65688735E-02  1.31690852E+00  2.28420079E+00 -7.65688735E-02  1.31690852E+00
  2.28420079E+00  7.65688735E-02 -1.31690852E+00  2.28420079E+00  7.65688735E-02
 -1.31690852E+00  2.28420079E+00  7.65688735E-02 -1.31690852E+00  2.28420079E+00
  7.65688735E-02 -1.31690852E+00  2.28420079E+00  7.65688735E-02 -1.31690852E+00
  2.28420079E+00  7.65688735E-02 -1.31690852E+00  2.28420079E+00 -7.65688735E-02
 -2.62622807E+00 -5.18802988E-32 -7.65688735E-02 -2.62622807E+00 -5.18802988E-32
 -7.65688735E-02 -2.62622807E+00 -5.18802988E-32 -7.65688735E-02 -2.62622807E+00
 -5.18802988E-32 -7.65688735E-02 -2.62622807E+00 -5.18802988E-32 -7.65688735E-02
 -2.62622807E+00 -5.18802988E-32  7.65688735E-02 -1.31690852E+00 -2.28420079E+00
  7.65688735E-02 -1.31690852E+00 -2.28420079E+00  7.65688735E-02 -1.31690852E+00
 -2.28420079E+00  7.65688735E-02 -1.31690852E+00 -2.28420079E+00  7.65688735E-02
 -1.31690852E+00 -2.28420079E+00  7.65688735E-02 -1.31690852E+00 -2.28420079E+00
 -7.65688735E-02  1.31690852E+00 -2.28420079E+00 -7.65688735E-02  1.31690852E+00
 -2.28420079E+00 -7.65688735E-02  1.31690852E+00 -2.28420079E+00 -7.65688735E-02
  1.31690852E+00 -2.28420079E+00 -7.65688735E-02  1.31690852E+00 -2.28420079E+00
 -7.65688735E-02  1.31690852E+00 -2.28420079E+00  6.16723430E-02  4.67628419E+00
  5.80162199E-32  6.16723430E-02  4.67628419E+00  5.80162199E-32  6.16723430E-02
  4.67628419E+00  5.80162199E-32  6.16723430E-02  4.67628419E+00  5.80162199E-32
  6.16723430E-02  4.67628419E+00  5.80162199E-32 -6.03875049E-02  2.34599660E+00
  4.05662218E+00 -6.03875049E-02  2.34599660E+00  4.05662218E+00 -6.03875049E-02
  2.34599660E+00  4.05662218E+00 -6.03875049E-02  2.34599660E+00  4.05662218E+00
 -6.03875049E-02  2.34599660E+00  4.05662218E+00  6.03875049E-02 -2.34599660E+00
  4.05662218E+00  6.03875049E-02 -2.34599660E+00  4.05662218E+00  6.03875049E-02
 -2.34599660E+00  4.05662218E+00  6.03875049E-02 -2.34599660E+00  4.05662218E+00
  6.03875049E-02 -2.34599660E+00  4.05662218E+00 -6.16723430E-02 -4.67628419E+00
 -9.37590142E-32 -6.16723430E-02 -4.67628419E+00 -9.37590142E-32 -6.16723430E-02
 -4.67628419E+00 -9.37590142E-32 -6.16723430E-02 -4.67628419E+00 -9.37590142E-32
 -6.16723430E-02 -4.67628419E+00 -9.37590142E-32  6.03875049E-02 -2.34599660E+00
 -4.05662218E+00  6.03875049E-02 -2.34599660E+00 -4.05662218E+00  6.03875049E-02
 -2.34599660E+00 -4.05662218E+00  6.03875049E-02 -2.34599660E+00 -4.05662218E+00
  6.03875049E-02 -2.34599660E+00 -4.05662218E+00 -6.03875049E-02  2.34599660E+00
 -4.05662218E+00 -6.03875049E-02  2.34599660E+00 -4.05662218E+00 -6.03875049E-02
  2.34599660E+00 -4.05662218E+00 -6.03875049E-02  2.34599660E+00 -4.05662218E+00
 -6.03875049E-02  2.34599660E+00 -4.05662218E+00
Constraint Structure                       R   N=          36
  7.65688735E-02  2.62622807E+00  3.28406766E-32 -7.65688735E-02  1.31690852E+00
  2.28420079E+00  7.65688735E-02 -1.31690852E+00  2.28420079E+00 -7.65688735E-02
 -2.62622807E+00 -5.18802988E-32  7.65688735E-02 -1.31690852E+00 -2.28420079E+00
 -7.65688735E-02  1.31690852E+00 -2.28420079E+00  6.16723430E-02  4.67628419E+00
  5.80162199E-32 -6.03875049E-02  2.34599660E+00  4.05662218E+00  6.03875049E-02
 -2.34599660E+00  4.05662218E+00 -6.16723430E-02 -4.67628419E+00 -9.37590142E-32
  6.03875049E-02 -2.34599660E+00 -4.05662218E+00 -6.03875049E-02  2.34599660E+00
 -4.05662218E+00
Num ILSW                                   I              100
ILSW                                       I   N=         100
           0           0           0           0           2           0
           0           0           0           0           0          -1
           0           0           0           0           0           0
           0           0           0           0           0           0
           1           0           0           0           0           0
           0           0      100000           0          -1           0
           0           0           0           0           0           0
           0           0           0           1           0           0
           0           0           1           0           0           0
           0           0           4          40           0           0
           0           0           0           0           0           0
           0           0           0           0           0           0
           0           0           0           0           0           0
           0           0           0           0           0           0
           0           0           0           0           0           0
           0           0           0           0           0           0
           0           0           0           0
Num RLSW                                   I               40
RLSW                                       R   N=          40
  1.00000000E+00  1.00000000E+00  1.00000000E+00  1.00000000E+00  1.00000000E+00
  0.00000000E+00  0.00000000E+00  1.00000000E+00  0.00000000E+00  0.00000000E+00
  0.00000000E+00  0.00000000E+00  1.00000000E+00  0.00000000E+00  0.00000000E+00
  0.00000000E+00  0.00000000E+00  1.00000000E+00  0.00000000E+00  0.00000000E+00
  0.00000000E+00  0.00000000E+00  1.00000000E+00  0.00000000E+00  0.00000000E+00
  0.00000000E+00  0.00000000E+00  1.00000000E+00  0.00000000E+00  0.00000000E+00
  0.00000000E+00  0.00000000E+00  0.00000000E+00  0.00000000E+00  0.00000000E+00
  0.00000000E+00  0.00000000E+00  0.00000000E+00  1.00000000E+00  1.00000000E+00
MxBond                                     I                3
NBond                                      I   N=          12
           3           3           3           3           3           3
           1           1           1           1           1           1
IBond                                      I   N=          36
           2           6           7           1           3           8
           2           4           9           3           5          10
           4           6          11           1           5          12
           1           0           0           2           0           0
           3           0           0           4           0           0
           5           0           0           6           0           0
RBond                                      R   N=          36
  1.50000000E+00  1.50000000E+00  1.00000000E+00  1.50000000E+00  1.50000000E+00
  1.00000000E+00  1.50000000E+00  1.50000000E+00  1.00000000E+00  1.50000000E+00
  1.50000000E+00  1.00000000E+00  1.50000000E+00  1.50000000E+00  1.00000000E+00
  1.50000000E+00  1.50000000E+00  1.00000000E+00  1.00000000E+00  0.00000000E+00
  0.00000000E+00  1.00000000E+00  0.00000000E+00  0.00000000E+00  1.00000000E+00
  0.00000000E+00  0.00000000E+00  1.00000000E+00  0.00000000E+00  0.00000000E+00
  1.00000000E+00  0.00000000E+00  0.00000000E+00  1.00000000E+00  0.00000000E+00
  0.00000000E+00
Virial Ratio                               R      2.001295722273591E+00
SCF Energy                                 R     -2.307506944646895E+02
MP2 Energy                                 R     -2.315815296463963E+02
Total Energy                               R     -2.315815296463963E+02
Post-SCF wavefunction norm                 R      1.144342898391451E+00
RMS Density                                R      9.269728086502867E-09
External E-field                           R   N=          35
  0.00000000E+00  0.00000000E+00  0.00000000E+00  0.00000000E+00  0.00000000E+00
  0.00000000E+00  0.00000000E+00  0.00000000E+00  0.00000000E+00  0.00000000E+00
  0.00000000E+00  0.00000000E+00  0.00000000E+00  0.00000000E+00  0.00000000E+00
  0.00000000E+00  0.00000000E+00  0.00000000E+00  0.00000000E+00  0.00000000E+00
  0.00000000E+00  0.00000000E+00  0.00000000E+00  0.00000000E+00  0.00000000E+00
  0.00000000E+00  0.00000000E+00  0.00000000E+00  0.00000000E+00  0.00000000E+00
  0.00000000E+00  0.00000000E+00  0.00000000E+00  0.00000000E+00  0.00000000E+00
IOpCl                                      I                0
IROHF                                      I                0
Alpha Orbital Energies                     R   N=         174
 -1.12394493E+01 -1.12389694E+01 -1.12387875E+01 -1.12377485E+01 -1.12375421E+01
 -1.12370399E+01 -1.15230960E+00 -1.01643510E+00 -1.01589464E+00 -8.25063422E-01
 -8.24322280E-01 -7.10463290E-01 -6.44576399E-01 -6.19051581E-01 -5.89865049E-01
 -5.88423013E-01 -5.01909869E-01 -4.96658651E-01 -4.95111650E-01 -3.36402455E-01
 -3.36100421E-01  4.20995972E-02  4.90207872E-02  4.90608643E-02  6.64644056E-02
  6.65138694E-02  9.72331172E-02  1.07965457E-01  1.08450267E-01  1.13421145E-01
  1.47713314E-01  1.51758025E-01  1.51853783E-01  1.62895241E-01  1.81594737E-01
  1.81767995E-01  1.83932455E-01  1.83951326E-01  1.91909731E-01  2.12499007E-01
  2.12603149E-01  2.14173250E-01  2.15331261E-01  2.15592987E-01  2.21158511E-01
  2.28592089E-01  2.28759273E-01  2.45467171E-01  2.49930059E-01  2.49955871E-01
  2.61594223E-01  2.89118138E-01  2.89241639E-01  3.33496397E-01  3.59604084E-01
  4.04572402E-01  4.07886130E-01  4.08155210E-01  4.28655141E-01  4.28697256E-01
  4.97203511E-01  4.97274478E-01  5.09123556E-01  5.09803276E-01  6.04395960E-01
  6.10923612E-01  6.30766567E-01  7.14836029E-01  7.26429800E-01  7.28630765E-01
  7.28806141E-01  7.47743039E-01  7.48081575E-01  7.60503722E-01  7.60529775E-01
  7.88851230E-01  8.06224768E-01  8.17570623E-01  8.17732088E-01  8.83911483E-01
  9.37656810E-01  9.38449906E-01  9.49482379E-01  9.50654102E-01  9.75266405E-01
  1.01195071E+00  1.01200808E+00  1.04823428E+00  1.04846003E+00  1.05816743E+00
  1.09555533E+00  1.11918986E+00  1.11961655E+00  1.14035319E+00  1.20579116E+00
  1.20701673E+00  1.28210876E+00  1.33737669E+00  1.33872256E+00  1.39124972E+00
  1.39233050E+00  1.55317113E+00  1.56405903E+00  1.71170853E+00  1.78432590E+00
  1.78748634E+00  1.79906417E+00  1.82583681E+00  1.84267638E+00  1.84307880E+00
  1.90534259E+00  1.90701579E+00  1.93313432E+00  1.93539630E+00  1.99843973E+00
  2.05246768E+00  2.05341423E+00  2.10230626E+00  2.10446531E+00  2.12853184E+00
  2.16535956E+00  2.21735925E+00  2.22032566E+00  2.25848796E+00  2.26037273E+00
  2.29525633E+00  2.35859099E+00  2.35899222E+00  2.37173876E+00  2.37277838E+00
  2.62323253E+00  2.63854631E+00  2.74775445E+00  2.74853053E+00  2.76060155E+00
  2.77264263E+00  2.81618425E+00  2.81783399E+00  2.95665205E+00  2.95960013E+00
  2.99250269E+00  3.00900543E+00  3.02594701E+00  3.02636640E+00  3.04134114E+00
  3.04163528E+00  3.08812876E+00  3.19035003E+00  3.19111203E+00  3.21923874E+00
  3.29971682E+00  3.30028518E+00  3.32884705E+00  3.33064369E+00  3.47661049E+00
  3.54404701E+00  3.77231613E+00  3.77258559E+00  3.90213779E+00  3.90224076E+00
  3.92238981E+00  4.00551462E+00  4.40687975E+00  4.40823524E+00  4.45816793E+00
  4.58272175E+00  4.58461161E+00  5.18496522E+00  2.47495159E+01  2.51302198E+01
  2.51310196E+01  2.52550424E+01  2.52566378E+01  2.53223581E+01
Alpha MO coefficients                      R   N=       30276
  2.05883338E-01  1.70459550E-01 -1.85727832E-05 -3.79187389E-05  0.00000000E+00
  1.85606389E-03 -1.87934119E-05 -1.83167237E-04  0.00000000E+00 -3.72172497E-04
  8.48354550E-05  5.29460942E-06  0.00000000E+00 -3.78226008E-04 -3.56906022E-04
 -8.24864554E-05  0.00000000E+00  1.03391339E-04  0.00000000E+00  0.00000000E+00
 -5.06566417E-05  2.54926639E-06  2.41027886E-01  1.99571090E-01  2.11677583E-05
 -2.13008540E-05 -1.45918308E-05  2.10227189E-03  1.99832133E-05 -1.03670457E-04
 -1.62934163E-04 -4.11158303E-04 -8.44937313E-05  1.45588410E-05  2.09268036E-05
  4.54220805E-05  3.60355682E-04 -1.23668063E-04 -2.26029226E-04  3.24888358E-05
 -3.46378355E-06 -5.49429996E-05 -1.26989656E-04 -1.32820459E-06  2.41027886E-01
  1.99571090E-01 -2.11677583E-05  2.13008540E-05 -1.45918308E-05  2.10227189E-03
 -1.99832133E-05  1.03670457E-04 -1.62934163E-04 -4.11158303E-04  8.44937313E-05
 -1.45588410E-05  2.09268036E-05  4.54220805E-05 -3.60355682E-04  1.23668063E-04
 -2.26029226E-04  3.24888358E-05  3.46378355E-06  5.49429996E-05 -1.26989656E-04
 -1.32820459E-06  2.05883338E-01  1.70459550E-01  1.85727832E-05  3.79187389E-05
  0.00000000E+00  1.85606389E-03  1.87934119E-05  1.83167237E-04  0.00000000E+00
 -3.72172497E-04 -8.48354550E-05 -5.29460942E-06  0.00000000E+00 -3.78226008E-04
  3.56906022E-04  8.24864554E-05  0.00000000E+00  1.03391339E-04  0.00000000E+00
  0.00000000E+00 -5.06566417E-05  2.54926639E-06  2.41027886E-01  1.99571090E-01
 -2.11677583E-05  2.13008540E-05  1.45918308E-05  2.10227189E-03 -1.99832133E-05
  1.03670457E-04  1.62934163E-04 -4.11158303E-04  8.44937313E-05 -1.45588410E-05
 -2.09268036E-05  4.54220805E-05 -3.60355682E-04  1.23668063E-04  2.26029226E-04
  3.24888358E-05 -3.46378355E-06 -5.49429996E-05 -1.26989656E-04 -1.32820459E-06
  2.41027886E-01  1.99571090E-01  2.11677583E-05 -2.13008540E-05  1.45918308E-05
  2.10227189E-03  1.99832133E-05 -1.03670457E-04  1.62934163E-04 -4.11158303E-04
 -8.44937313E-05  1.45588410E-05 -2.09268036E-05  4.54220805E-05  3.60355682E-04
 -1.23668063E-04  2.26029226E-04  3.24888358E-05  3.46378355E-06  5.49429996E-05
 -1.26989656E-04 -1.32820459E-06  1.58290545E-04  5.48817952E-06  1.99315385E-04
  5.60523375E-05 -5.20177044E-06 -3.45155551E-05  0.00000000E+00  1.83967713E-04
 -1.03089894E-05  2.28302235E-04  1.21929549E-04  5.42505859E-06 -1.75911364E-05
 -2.84048566E-05  1.83967713E-04 -1.03089894E-05  2.28302235E-04  1.21929549E-04
 -5.42505859E-06  1.75911364E-05 -2.84048566E-05  1.58290545E-04  5.48817952E-06
  1.99315385E-04  5.60523375E-05  5.20177044E-06  3.45155551E-05  0.00000000E+00
  1.83967713E-04 -1.03089894E-05  2.28302235E-04  1.21929549E-04 -5.42505859E-06
  1.75911364E-05  2.84048566E-05  1.83967713E-04 -1.03089894E-05  2.28302235E-04
  1.21929549E-04  5.42505859E-06 -1.75911364E-05  2.84048566E-05  0.00000000E+00
  0.00000000E+00  0.00000000E+00  0.00000000E+00  1.85747449E-04  0.00000000E+00
  0.00000000E+00  0.00000000E+00  1.47341437E-04  0.00000000E+00  0.00000000E+00
  0.00000000E+00 -1.88027583E-04  0.00000000E+00  0.00000000E+00  0.00000000E+00
  9.52514047E-04  0.00000000E+00  5.64006893E-06 -1.05885102E-04  0.00000000E+00
  0.00000000E+00  2.81619537E-01  2.33212235E-01  2.77029389E-05 -8.08025695E-05
  4.35416917E-05  2.30064812E-03  3.59857118E-06 -1.25434435E-04 -6.98288494E-05
 -3.21097211E-04  7.86462755E-06  7.32433649E-05 -6.01092356E-05 -9.62007233E-04
 -7.45063656E-05 -9.10601670E-04 -6.24560687E-04  1.17205642E-05 -6.17694506E-06
 -3.85070381E-05 -1.86599137E-04 -2.78474651E-07  2.81619537E-01  2.33212235E-01
 -2.77029389E-05  8.08025695E-05  4.35416917E-05  2.30064812E-03 -3.59857118E-06
  1.25434435E-04 -6.98288494E-05 -3.21097211E-04 -7.86462755E-06 -7.32433649E-05
 -6.01092356E-05 -9.62007233E-04  7.45063656E-05  9.10601670E-04 -6.24560687E-04
  1.17205642E-05  6.17694506E-06  3.85070381E-05 -1.86599137E-04 -2.78474651E-07
  0.00000000E+00  0.00000000E+00  0.00000000E+00  0.00000000E+00  1.85747449E-04
  0.00000000E+00  0.00000000E+00  0.00000000E+00  1.47341437E-04  0.00000000E+00
  0.00000000E+00  0.00000000E+00 -1.88027583E-04  0.00000000E+00  0.00000000E+00
  0.00000000E+00  9.52514047E-04  0.00000000E+00 -5.64006893E-06  1.05885102E-04
  0.00000000E+00  0.00000000E+00 -2.81619537E-01 -2.33212235E-01  2.77029389E-05
 -8.08025695E-05  4.35416917E-05 -2.30064812E-03  3.59857118E-06 -1.25434435E-04
 -6.98288494E-05  3.21097211E-04  7.86462755E-06  7.32433649E-05 -6.01092356E-05
  9.62007233E-04 -7.45063656E-05 -9.10601670E-04 -6.24560687E-04 -1.17205642E-05
  6.17694506E-06  3.85070381E-05  1.86599137E-04  2.78474651E-07 -2.81619537E-01
 -2.33212235E-01 -2.77029389E-05  8.08025695E-05  4.35416917E-05 -2.30064812E-03
 -3.59857118E-06  1.25434435E-04 -6.98288494E-05  3.21097211E-04 -7.86462755E-06