 Entering Gaussian System, Link 0=g09
 Initial command:
 /apps/software//g09/l1.exe /scratch/itamar/2489.cluster.abaxnet/Gau-13688.inp -scrdir=/scratch/itamar/2489.cluster.abaxnet/
 Entering Link 1 = /apps/software//g09/l1.exe PID=     13689.
  
 Copyright (c) 1988,1990,1992,1993,1995,1998,2003,2009, Gaussian, Inc.
                  All Rights Reserved.
  
 This is part of the Gaussian(R) 09 program.  It is based on
 the Gaussian(R) 03 system (copyright 2003, Gaussian, Inc.),
 the Gaussian(R) 98 system (copyright 1998, Gaussian, Inc.),
 the Gaussian(R) 94 system (copyright 1995, Gaussian, Inc.),
 the Gaussian 92(TM) system (copyright 1992, Gaussian, Inc.),
 the Gaussian 90(TM) system (copyright 1990, Gaussian, Inc.),
 the Gaussian 88(TM) system (copyright 1988, Gaussian, Inc.),
 the Gaussian 86(TM) system (copyright 1986, Carnegie Mellon
 University), and the Gaussian 82(TM) system (copyright 1983,
 Carnegie Mellon University). Gaussian is a federally registered
 trademark of Gaussian, Inc.
  
 This software contains proprietary and confidential information,
 including trade secrets, belonging to Gaussian, Inc.
  
 This software is provided under written license and may be
 used, copied, transmitted, or stored only in accord with that
 written license.
  
 The following legend is applicable only to US Government
 contracts under FAR:
  
                    RESTRICTED RIGHTS LEGEND
  
 Use, reproduction and disclosure by the US Government is
 subject to restrictions as set forth in subparagraphs (a)
 and (c) of the Commercial Computer Software - Restricted
 Rights clause in FAR 52.227-19.
  
 Gaussian, Inc.
 340 Quinnipiac St., Bldg. 40, Wallingford CT 06492
  
  
 ---------------------------------------------------------------
 Warning -- This program may not be used in any manner that
 competes with the business of Gaussian, Inc. or will provide
 assistance to any competitor of Gaussian, Inc.  The licensee
 of this program is prohibited from giving any competitor of
 Gaussian, Inc. access to this program.  By using this program,
 the user acknowledges that Gaussian, Inc. is engaged in the
 business of creating and licensing software in the field of
 computational chemistry and represents and warrants to the
 licensee that it is not a competitor of Gaussian, Inc. and that
 it will not use this program in any manner prohibited above.
 ---------------------------------------------------------------
  

 Cite this work as:
 Gaussian 09, Revision A.02,
 M. J. Frisch, G. W. Trucks, H. B. Schlegel, G. E. Scuseria, 
 M. A. Robb, J. R. Cheeseman, G. Scalmani, V. Barone, B. Mennucci, 
 G. A. Petersson, H. Nakatsuji, M. Caricato, X. Li, H. P. Hratchian, 
 A. F. Izmaylov, J. Bloino, G. Zheng, J. L. Sonnenberg, M. Hada, 
 M. Ehara, K. Toyota, R. Fukuda, J. Hasegawa, M. Ishida, T. Nakajima, 
 Y. Honda, O. Kitao, H. Nakai, T. Vreven, J. A. Montgomery, Jr., 
 J. E. Peralta, F. Ogliaro, M. Bearpark, J. J. Heyd, E. Brothers, 
 K. N. Kudin, V. N. Staroverov, R. Kobayashi, J. Normand, 
 K. Raghavachari, A. Rendell, J. C. Burant, S. S. Iyengar, J. Tomasi, 
 M. Cossi, N. Rega, J. M. Millam, M. Klene, J. E. Knox, J. B. Cross, 
 V. Bakken, C. Adamo, J. Jaramillo, R. Gomperts, R. E. Stratmann, 
 O. Yazyev, A. J. Austin, R. Cammi, C. Pomelli, J. W. Ochterski, 
 R. L. Martin, K. Morokuma, V. G. Zakrzewski, G. A. Voth, 
 P. Salvador, J. J. Dannenberg, S. Dapprich, A. D. Daniels, 
 O. Farkas, J. B. Foresman, J. V. Ortiz, J. Cioslowski, 
 and D. J. Fox, Gaussian, Inc., Wallingford CT, 2009.
 
 ******************************************
 Gaussian 09:  EM64L-G09RevA.02 11-Jun-2009
                 3-Dec-2021 
 ******************************************
 %Mem=3800MB
 %NProcShared=4
 Will use up to    4 processors via shared memory.
 %chk=/home/itamar/Aromaticity-test-set/T12-old-T14-Fulvenes/Penta-O/penta-o.chk
 -----------------------------
 #P MP2/6-311++G** DENSITY=MP2
 -----------------------------
 1/30=1,38=1/1;
 2/12=2,17=6,18=5,40=1/2;
 3/5=4,6=6,7=1111,11=9,16=1,25=1,30=1,71=1/1,2,3;
 4//1;
 5/5=2,38=5/2;
 8/6=4,10=2/1;
 9/15=1,16=-3/6;
 10/5=1,13=10/2;
 6/7=2,8=2,9=2,10=2,22=2/1;
 99/5=1,9=1/99;
 Leave Link    1 at Fri Dec  3 17:34:27 2021, MaxMem=  498073600 cpu:       0.1
 (Enter /apps/software//g09/l101.exe)
 -------
 Penta-O
 -------
 Symbolic Z-matrix:
 Charge =  0 Multiplicity = 1
 6                     0.        0.        0.82305 
 6                     0.        1.20465  -0.0885 
 1                     0.        2.22351   0.26813 
 6                     0.        0.75157  -1.3468 
 1                     0.        1.34619  -2.25065 
 6                     0.       -1.20465  -0.0885 
 1                     0.       -2.22351   0.26813 
 6                     0.       -0.75157  -1.3468 
 1                     0.       -1.34619  -2.25065 
 8                     0.        0.        2.0313 
 
 NAtoms=     10 NQM=     10 NQMF=      0 NMic=      0 NMicF=      0 NTot=     10.
                    Isotopes and Nuclear Properties:
 (Nuclear quadrupole moments (NQMom) in fm**2, nuclear magnetic moments (NMagM)
  in nuclear magnetons)

  Atom         1           2           3           4           5           6           7           8           9          10
 IAtWgt=          12          12           1          12           1          12           1          12           1          16
 AtmWgt=  12.0000000  12.0000000   1.0078250  12.0000000   1.0078250  12.0000000   1.0078250  12.0000000   1.0078250  15.9949146
 NucSpn=           0           0           1           0           1           0           1           0           1           0
 AtZEff=   0.0000000   0.0000000   0.0000000   0.0000000   0.0000000   0.0000000   0.0000000   0.0000000   0.0000000   0.0000000
 NQMom=    0.0000000   0.0000000   0.0000000   0.0000000   0.0000000   0.0000000   0.0000000   0.0000000   0.0000000   0.0000000
 NMagM=    0.0000000   0.0000000   2.7928460   0.0000000   2.7928460   0.0000000   2.7928460   0.0000000   2.7928460   0.0000000
 Leave Link  101 at Fri Dec  3 17:34:27 2021, MaxMem=  498073600 cpu:       0.1
 (Enter /apps/software//g09/l202.exe)
                          Input orientation:                          
 ---------------------------------------------------------------------
 Center     Atomic      Atomic             Coordinates (Angstroms)
 Number     Number       Type             X           Y           Z
 ---------------------------------------------------------------------
      1          6           0        0.000000    0.000000    0.823052
      2          6           0        0.000000    1.204646   -0.088504
      3          1           0        0.000000    2.223506    0.268126
      4          6           0        0.000000    0.751566   -1.346802
      5          1           0        0.000000    1.346186   -2.250654
      6          6           0        0.000000   -1.204646   -0.088504
      7          1           0        0.000000   -2.223506    0.268126
      8          6           0        0.000000   -0.751566   -1.346802
      9          1           0        0.000000   -1.346186   -2.250654
     10          8           0        0.000000    0.000000    2.031302
 ---------------------------------------------------------------------
                    Distance matrix (angstroms):
                    1          2          3          4          5
     1  C    0.000000
     2  C    1.510664   0.000000
     3  H    2.291707   1.079472   0.000000
     4  C    2.296327   1.337384   2.185086   0.000000
     5  H    3.355575   2.166778   2.667198   1.081906   0.000000
     6  C    1.510664   2.409292   3.446652   2.325958   3.343895
     7  H    2.291707   3.446652   4.447012   3.385121   4.368862
     8  C    2.296327   2.325958   3.385121   1.503132   2.284187
     9  H    3.355575   3.343895   4.368862   2.284187   2.692372
    10  O    1.208250   2.438186   2.837740   3.460699   4.488582
                    6          7          8          9         10
     6  C    0.000000
     7  H    1.079472   0.000000
     8  C    1.337384   2.185086   0.000000
     9  H    2.166778   2.667198   1.081906   0.000000
    10  O    2.438186   2.837740   3.460699   4.488582   0.000000
 Stoichiometry    C5H4O
 Framework group  C2V[C2(CO),SGV(C4H4)]
 Deg. of freedom     9
 Full point group                 C2V     NOp   4
 Largest Abelian subgroup         C2V     NOp   4
 Largest concise Abelian subgroup C2      NOp   2
                         Standard orientation:                         
 ---------------------------------------------------------------------
 Center     Atomic      Atomic             Coordinates (Angstroms)
 Number     Number       Type             X           Y           Z
 ---------------------------------------------------------------------
      1          6           0        0.000000    0.000000    0.823052
      2          6           0        0.000000    1.204646   -0.088504
      3          1           0        0.000000    2.223506    0.268126
      4          6           0        0.000000    0.751566   -1.346802
      5          1           0        0.000000    1.346186   -2.250654
      6          6           0        0.000000   -1.204646   -0.088504
      7          1           0        0.000000   -2.223506    0.268126
      8          6           0        0.000000   -0.751566   -1.346802
      9          1           0        0.000000   -1.346186   -2.250654
     10          8           0        0.000000    0.000000    2.031302
 ---------------------------------------------------------------------
 Rotational constants (GHZ):      8.1509208      3.9479437      2.6597022
 Leave Link  202 at Fri Dec  3 17:34:27 2021, MaxMem=  498073600 cpu:       0.0
 (Enter /apps/software//g09/l301.exe)
 Standard basis: 6-311++G(d,p) (5D, 7F)
 Ernie: Thresh=  0.10000D-02 Tol=  0.10000D-05 Strict=F.
 There are    66 symmetry adapted basis functions of A1  symmetry.
 There are    16 symmetry adapted basis functions of A2  symmetry.
 There are    24 symmetry adapted basis functions of B1  symmetry.
 There are    54 symmetry adapted basis functions of B2  symmetry.
 Integral buffers will be    131072 words long.
 Raffenetti 1 integral format.
 Two-electron integral symmetry is turned on.
   160 basis functions,   252 primitive gaussians,   166 cartesian basis functions
    21 alpha electrons       21 beta electrons
       nuclear repulsion energy       200.2753654893 Hartrees.
 IExCor=    0 DFT=F Ex=HF Corr=None ExCW=0 ScaHFX=  1.000000
 ScaDFX=  1.000000  1.000000  1.000000  1.000000 ScalE2=  1.000000  1.000000
 IRadAn=      0 IRanWt=     -1 IRanGd=            0 ICorTp=0
 NAtoms=   10 NActive=   10 NUniq=    6 SFac= 2.08D+00 NAtFMM=   80 NAOKFM=F Big=F
 Leave Link  301 at Fri Dec  3 17:34:28 2021, MaxMem=  498073600 cpu:       0.2
 (Enter /apps/software//g09/l302.exe)
 NPDir=0 NMtPBC=     1 NCelOv=     1 NCel=       1 NClECP=     1 NCelD=      1
         NCelK=      1 NCelE2=     1 NClLst=     1 CellRange=     0.0.
 One-electron integrals computed using PRISM.
 One-electron integral symmetry used in STVInt
 NBasis=   160 RedAO= T  NBF=    66    16    24    54
 NBsUse=   160 1.00D-06 NBFU=    66    16    24    54
 Leave Link  302 at Fri Dec  3 17:34:28 2021, MaxMem=  498073600 cpu:       0.6
 (Enter /apps/software//g09/l303.exe)
 DipDrv:  MaxL=1.
 Leave Link  303 at Fri Dec  3 17:34:28 2021, MaxMem=  498073600 cpu:       0.1
 (Enter /apps/software//g09/l401.exe)
 Harris functional with IExCor=  205 diagonalized for initial guess.
 ExpMin= 3.60D-02 ExpMax= 8.59D+03 ExpMxC= 1.30D+03 IAcc=3 IRadAn=         0 AccDes= 0.00D+00
 HarFok:  IExCor=  205 AccDes= 0.00D+00 IRadAn=         0 IDoV= 1
 ScaDFX=  1.000000  1.000000  1.000000  1.000000
 FoFCou: FMM=F IPFlag=           0 FMFlag=      100000 FMFlg1=           0
         NFxFlg=           0 DoJE=T BraDBF=F KetDBF=T FulRan=T
         Omega=  0.000000  0.000000  1.000000  0.000000  0.000000 ICntrl=     500 IOpCl=  0
         NMat0=    1 NMatS0=    1 NMatT0=    0 NMatD0=    1 NMtDS0=    0 NMtDT0=    0
         I1Cent=           4 NGrid=           0.
 Petite list used in FoFCou.
 Harris En= -266.840139289233    
 Initial guess orbital symmetries:
       Occupied  (A1) (A1) (B2) (A1) (B2) (A1) (A1) (A1) (B2) (A1)
                 (B2) (A1) (A1) (A1) (B2) (B2) (B1) (A1) (B1) (B2)
                 (A2)
       Virtual   (B1) (A2) (B1) (A1) (B2) (A1) (B2) (A1) (A1) (B1)
                 (B2) (A2) (A1) (A1) (B1) (A1) (B2) (B2) (A1) (B2)
                 (B2) (B1) (A2) (A1) (B2) (A1) (A1) (A1) (B2) (A1)
                 (B2) (B2) (B1) (A1) (B2) (B2) (A1) (B2) (A1) (A1)
                 (B2) (A1) (B1) (B2) (A1) (A2) (B1) (B2) (A1) (A2)
                 (B1) (A1) (B2) (A1) (A1) (B2) (B2) (A1) (B2) (A1)
                 (B2) (B2) (B1) (A1) (A2) (B1) (A1) (A2) (B2) (B1)
                 (A1) (B1) (A1) (B2) (A1) (B2) (A1) (A1) (A2) (B2)
                 (B1) (A2) (B2) (A1) (B1) (A1) (B1) (A2) (A1) (B2)
                 (B2) (A1) (B2) (A1) (B2) (A2) (B1) (A2) (A1) (B2)
                 (A1) (A1) (B2) (B1) (B2) (A2) (B1) (A1) (B2) (A1)
                 (B2) (A1) (A2) (B1) (A2) (B2) (A1) (A1) (A1) (B2)
                 (B1) (B2) (A1) (B2) (A1) (B2) (A1) (B2) (A1) (B2)
                 (B1) (B2) (A1) (A1) (B2) (A1) (B2) (A1) (A1)
 The electronic state of the initial guess is 1-A1.
 Leave Link  401 at Fri Dec  3 17:34:28 2021, MaxMem=  498073600 cpu:       1.0
 (Enter /apps/software//g09/l502.exe)
 Closed shell SCF:
 Requested convergence on RMS density matrix=1.00D-08 within 128 cycles.
 Requested convergence on MAX density matrix=1.00D-06.
 Requested convergence on             energy=1.00D-06.
 No special actions if energy rises.
 Using DIIS extrapolation, IDIIS=  1040.
 Integral symmetry usage will be decided dynamically.
 Keep R1 ints in memory in canonical form, NReq=98502623.
 IEnd=      103370 IEndB=      103370 NGot=   498073600 MDV=   401943974
 LenX=   401943974 LenY=   401915977
 Symmetry not used in FoFDir.
 MinBra= 0 MaxBra= 2 Meth= 1.
 IRaf=       0 NMat=   1 IRICut=       1 DoRegI=T DoRafI=F ISym2E= 0 JSym2E=0.

 Cycle   1  Pass 1  IDiag  1:
 E= -266.300292816117    
 DIIS: error= 5.63D-02 at cycle   1 NSaved=   1.
 NSaved= 1 IEnMin= 1 EnMin= -266.300292816117     IErMin= 1 ErrMin= 5.63D-02
 ErrMax= 5.63D-02 EMaxC= 1.00D-01 BMatC= 5.25D-01 BMatP= 5.25D-01
 IDIUse=3 WtCom= 4.37D-01 WtEn= 5.63D-01
 Coeff-Com:  0.100D+01
 Coeff-En:   0.100D+01
 Coeff:      0.100D+01
 Gap=     0.339 Goal=   None    Shift=    0.000
 GapD=    0.339 DampG=1.000 DampE=0.500 DampFc=0.5000 IDamp=-1.
 Damping current iteration by 5.00D-01
 RMSDP=8.78D-03 MaxDP=2.68D-01              OVMax= 1.44D-01

 Cycle   2  Pass 1  IDiag  1:
 E= -266.429508637260     Delta-E=       -0.129215821143 Rises=F Damp=T
 DIIS: error= 3.19D-02 at cycle   2 NSaved=   2.
 NSaved= 2 IEnMin= 2 EnMin= -266.429508637260     IErMin= 2 ErrMin= 3.19D-02
 ErrMax= 3.19D-02 EMaxC= 1.00D-01 BMatC= 1.16D-01 BMatP= 5.25D-01
 IDIUse=3 WtCom= 6.81D-01 WtEn= 3.19D-01
 Coeff-Com: -0.724D+00 0.172D+01
 Coeff-En:   0.000D+00 0.100D+01
 Coeff:     -0.493D+00 0.149D+01
 Gap=     0.383 Goal=   None    Shift=    0.000
 RMSDP=8.05D-03 MaxDP=3.08D-01 DE=-1.29D-01 OVMax= 3.57D-02

 Cycle   3  Pass 1  IDiag  1:
 E= -266.546601930676     Delta-E=       -0.117093293416 Rises=F Damp=F
 DIIS: error= 4.76D-03 at cycle   3 NSaved=   3.
 NSaved= 3 IEnMin= 3 EnMin= -266.546601930676     IErMin= 3 ErrMin= 4.76D-03
 ErrMax= 4.76D-03 EMaxC= 1.00D-01 BMatC= 1.28D-03 BMatP= 1.16D-01
 IDIUse=3 WtCom= 9.52D-01 WtEn= 4.76D-02
 Coeff-Com: -0.921D-01 0.147D+00 0.945D+00
 Coeff-En:   0.000D+00 0.000D+00 0.100D+01
 Coeff:     -0.877D-01 0.140D+00 0.948D+00
 Gap=     0.376 Goal=   None    Shift=    0.000
 RMSDP=8.48D-04 MaxDP=2.83D-02 DE=-1.17D-01 OVMax= 1.40D-02

 Cycle   4  Pass 1  IDiag  1:
 E= -266.547578307403     Delta-E=       -0.000976376727 Rises=F Damp=F
 DIIS: error= 1.90D-03 at cycle   4 NSaved=   4.
 NSaved= 4 IEnMin= 4 EnMin= -266.547578307403     IErMin= 4 ErrMin= 1.90D-03
 ErrMax= 1.90D-03 EMaxC= 1.00D-01 BMatC= 2.64D-04 BMatP= 1.28D-03
 IDIUse=3 WtCom= 9.81D-01 WtEn= 1.90D-02
 Coeff-Com: -0.104D-01 0.367D-02 0.324D+00 0.682D+00
 Coeff-En:   0.000D+00 0.000D+00 0.000D+00 0.100D+01
 Coeff:     -0.102D-01 0.360D-02 0.318D+00 0.689D+00
 Gap=     0.374 Goal=   None    Shift=    0.000
 RMSDP=4.36D-04 MaxDP=1.20D-02 DE=-9.76D-04 OVMax= 4.23D-03

 Cycle   5  Pass 1  IDiag  1:
 E= -266.547794727268     Delta-E=       -0.000216419865 Rises=F Damp=F
 DIIS: error= 8.18D-04 at cycle   5 NSaved=   5.
 NSaved= 5 IEnMin= 5 EnMin= -266.547794727268     IErMin= 5 ErrMin= 8.18D-04
 ErrMax= 8.18D-04 EMaxC= 1.00D-01 BMatC= 1.73D-05 BMatP= 2.64D-04
 IDIUse=3 WtCom= 9.92D-01 WtEn= 8.18D-03
 Coeff-Com:  0.115D-01-0.194D-01-0.113D+00 0.585D-01 0.106D+01
 Coeff-En:   0.000D+00 0.000D+00 0.000D+00 0.000D+00 0.100D+01
 Coeff:      0.114D-01-0.192D-01-0.112D+00 0.580D-01 0.106D+01
 Gap=     0.375 Goal=   None    Shift=    0.000
 RMSDP=1.78D-04 MaxDP=5.89D-03 DE=-2.16D-04 OVMax= 2.67D-03

 Cycle   6  Pass 1  IDiag  1:
 E= -266.547825524989     Delta-E=       -0.000030797721 Rises=F Damp=F
 DIIS: error= 1.30D-04 at cycle   6 NSaved=   6.
 NSaved= 6 IEnMin= 6 EnMin= -266.547825524989     IErMin= 6 ErrMin= 1.30D-04
 ErrMax= 1.30D-04 EMaxC= 1.00D-01 BMatC= 1.05D-06 BMatP= 1.73D-05
 IDIUse=3 WtCom= 9.99D-01 WtEn= 1.30D-03
 Coeff-Com:  0.119D-02-0.161D-02-0.128D-01-0.526D-01-0.290D-01 0.109D+01
 Coeff-En:   0.000D+00 0.000D+00 0.000D+00 0.000D+00 0.000D+00 0.100D+01
 Coeff:      0.119D-02-0.160D-02-0.128D-01-0.525D-01-0.289D-01 0.109D+01
 Gap=     0.375 Goal=   None    Shift=    0.000
 RMSDP=6.41D-05 MaxDP=1.77D-03 DE=-3.08D-05 OVMax= 6.97D-04

 Cycle   7  Pass 1  IDiag  1:
 E= -266.547827979286     Delta-E=       -0.000002454297 Rises=F Damp=F
 DIIS: error= 7.26D-05 at cycle   7 NSaved=   7.
 NSaved= 7 IEnMin= 7 EnMin= -266.547827979286     IErMin= 7 ErrMin= 7.26D-05
 ErrMax= 7.26D-05 EMaxC= 1.00D-01 BMatC= 1.69D-07 BMatP= 1.05D-06
 IDIUse=1 WtCom= 1.00D+00 WtEn= 0.00D+00
 Coeff-Com: -0.579D-03 0.929D-03 0.898D-02-0.125D-01-0.619D-01 0.404D-02
 Coeff-Com:  0.106D+01
 Coeff:     -0.579D-03 0.929D-03 0.898D-02-0.125D-01-0.619D-01 0.404D-02
 Coeff:      0.106D+01
 Gap=     0.375 Goal=   None    Shift=    0.000
 RMSDP=2.38D-05 MaxDP=5.93D-04 DE=-2.45D-06 OVMax= 3.98D-04

 Cycle   8  Pass 1  IDiag  1:
 E= -266.547828423638     Delta-E=       -0.000000444352 Rises=F Damp=F
 DIIS: error= 2.77D-05 at cycle   8 NSaved=   8.
 NSaved= 8 IEnMin= 8 EnMin= -266.547828423638     IErMin= 8 ErrMin= 2.77D-05
 ErrMax= 2.77D-05 EMaxC= 1.00D-01 BMatC= 6.49D-08 BMatP= 1.69D-07
 IDIUse=1 WtCom= 1.00D+00 WtEn= 0.00D+00
 Coeff-Com: -0.348D-03 0.435D-03 0.603D-02 0.854D-02 0.379D-02-0.342D+00
 Coeff-Com:  0.279D+00 0.104D+01
 Coeff:     -0.348D-03 0.435D-03 0.603D-02 0.854D-02 0.379D-02-0.342D+00
 Coeff:      0.279D+00 0.104D+01
 Gap=     0.375 Goal=   None    Shift=    0.000
 RMSDP=1.42D-05 MaxDP=3.05D-04 DE=-4.44D-07 OVMax= 1.79D-04

 Cycle   9  Pass 1  IDiag  1:
 E= -266.547828568044     Delta-E=       -0.000000144405 Rises=F Damp=F
 DIIS: error= 8.26D-06 at cycle   9 NSaved=   9.
 NSaved= 9 IEnMin= 9 EnMin= -266.547828568044     IErMin= 9 ErrMin= 8.26D-06
 ErrMax= 8.26D-06 EMaxC= 1.00D-01 BMatC= 3.09D-09 BMatP= 6.49D-08
 IDIUse=1 WtCom= 1.00D+00 WtEn= 0.00D+00
 Coeff-Com:  0.130D-03-0.200D-03-0.190D-02-0.115D-02 0.916D-02 0.529D-01
 Coeff-Com: -0.157D+00-0.236D+00 0.133D+01
 Coeff:      0.130D-03-0.200D-03-0.190D-02-0.115D-02 0.916D-02 0.529D-01
 Coeff:     -0.157D+00-0.236D+00 0.133D+01
 Gap=     0.375 Goal=   None    Shift=    0.000
 RMSDP=3.48D-06 MaxDP=8.48D-05 DE=-1.44D-07 OVMax= 8.10D-05

 Cycle  10  Pass 1  IDiag  1:
 E= -266.547828579236     Delta-E=       -0.000000011192 Rises=F Damp=F
 DIIS: error= 1.48D-06 at cycle  10 NSaved=  10.
 NSaved=10 IEnMin=10 EnMin= -266.547828579236     IErMin=10 ErrMin= 1.48D-06
 ErrMax= 1.48D-06 EMaxC= 1.00D-01 BMatC= 1.13D-10 BMatP= 3.09D-09
 IDIUse=1 WtCom= 1.00D+00 WtEn= 0.00D+00
 Coeff-Com:  0.170D-04-0.246D-04-0.190D-03-0.425D-03-0.348D-03 0.137D-01
 Coeff-Com: -0.662D-03-0.441D-01-0.768D-01 0.111D+01
 Coeff:      0.170D-04-0.246D-04-0.190D-03-0.425D-03-0.348D-03 0.137D-01
 Coeff:     -0.662D-03-0.441D-01-0.768D-01 0.111D+01
 Gap=     0.375 Goal=   None    Shift=    0.000
 RMSDP=4.25D-07 MaxDP=9.23D-06 DE=-1.12D-08 OVMax= 9.05D-06

 Cycle  11  Pass 1  IDiag  1:
 E= -266.547828579523     Delta-E=       -0.000000000287 Rises=F Damp=F
 DIIS: error= 4.01D-07 at cycle  11 NSaved=  11.
 NSaved=11 IEnMin=11 EnMin= -266.547828579523     IErMin=11 ErrMin= 4.01D-07
 ErrMax= 4.01D-07 EMaxC= 1.00D-01 BMatC= 1.10D-11 BMatP= 1.13D-10
 IDIUse=1 WtCom= 1.00D+00 WtEn= 0.00D+00
 Coeff-Com: -0.522D-05 0.789D-05 0.114D-03 0.890D-05-0.680D-03-0.222D-02
 Coeff-Com:  0.117D-01 0.109D-01-0.116D+00 0.159D+00 0.937D+00
 Coeff:     -0.522D-05 0.789D-05 0.114D-03 0.890D-05-0.680D-03-0.222D-02
 Coeff:      0.117D-01 0.109D-01-0.116D+00 0.159D+00 0.937D+00
 Gap=     0.375 Goal=   None    Shift=    0.000
 RMSDP=8.60D-08 MaxDP=2.44D-06 DE=-2.87D-10 OVMax= 2.69D-06

 Cycle  12  Pass 1  IDiag  1:
 E= -266.547828579542     Delta-E=       -0.000000000019 Rises=F Damp=F
 DIIS: error= 8.40D-08 at cycle  12 NSaved=  12.
 NSaved=12 IEnMin=12 EnMin= -266.547828579542     IErMin=12 ErrMin= 8.40D-08
 ErrMax= 8.40D-08 EMaxC= 1.00D-01 BMatC= 5.31D-13 BMatP= 1.10D-11
 IDIUse=1 WtCom= 1.00D+00 WtEn= 0.00D+00
 Coeff-Com: -0.390D-06 0.348D-06 0.457D-05 0.257D-04 0.105D-03-0.922D-03
 Coeff-Com: -0.100D-02 0.285D-02 0.174D-01-0.921D-01-0.144D+00 0.122D+01
 Coeff:     -0.390D-06 0.348D-06 0.457D-05 0.257D-04 0.105D-03-0.922D-03
 Coeff:     -0.100D-02 0.285D-02 0.174D-01-0.921D-01-0.144D+00 0.122D+01
 Gap=     0.375 Goal=   None    Shift=    0.000
 RMSDP=3.26D-08 MaxDP=9.47D-07 DE=-1.93D-11 OVMax= 7.72D-07

 Cycle  13  Pass 1  IDiag  1:
 E= -266.547828579546     Delta-E=       -0.000000000004 Rises=F Damp=F
 DIIS: error= 2.21D-08 at cycle  13 NSaved=  13.
 NSaved=13 IEnMin=13 EnMin= -266.547828579546     IErMin=13 ErrMin= 2.21D-08
 ErrMax= 2.21D-08 EMaxC= 1.00D-01 BMatC= 1.73D-14 BMatP= 5.31D-13
 IDIUse=1 WtCom= 1.00D+00 WtEn= 0.00D+00
 Coeff-Com:  0.291D-06-0.433D-06-0.507D-05-0.575D-05 0.911D-05 0.264D-03
 Coeff-Com: -0.292D-03-0.923D-03 0.100D-02 0.123D-01-0.678D-02-0.250D+00
 Coeff-Com:  0.124D+01
 Coeff:      0.291D-06-0.433D-06-0.507D-05-0.575D-05 0.911D-05 0.264D-03
 Coeff:     -0.292D-03-0.923D-03 0.100D-02 0.123D-01-0.678D-02-0.250D+00
 Coeff:      0.124D+01
 Gap=     0.375 Goal=   None    Shift=    0.000
 RMSDP=5.27D-09 MaxDP=1.56D-07 DE=-3.75D-12 OVMax= 1.73D-07

 SCF Done:  E(RHF) =  -266.547828580     A.U. after   13 cycles
             Convg  =    0.5272D-08             -V/T =  2.0013
 KE= 2.662044637287D+02 PE=-1.024097697273D+03 EE= 2.910700394751D+02
 Leave Link  502 at Fri Dec  3 17:34:32 2021, MaxMem=  498073600 cpu:      17.2
 (Enter /apps/software//g09/l801.exe)
 ExpMin= 3.60D-02 ExpMax= 8.59D+03 ExpMxC= 1.30D+03 IAcc=3 IRadAn=         5 AccDes= 0.00D+00
 HarFok:  IExCor=  205 AccDes= 0.00D+00 IRadAn=         5 IDoV=-2
 ScaDFX=  1.000000  1.000000  1.000000  1.000000
 Largest valence mixing into a core orbital is  1.44D-04
 Largest core mixing into a valence orbital is  4.36D-05
 Range of M.O.s used for correlation:     7   160
 NBasis=   160 NAE=    21 NBE=    21 NFC=     6 NFV=     0
 NROrb=    154 NOA=    15 NOB=    15 NVA=   139 NVB=   139

 **** Warning!!: The largest alpha MO coefficient is  0.11762703D+03

 Leave Link  801 at Fri Dec  3 17:34:33 2021, MaxMem=  498073600 cpu:       0.8
 (Enter /apps/software//g09/l906.exe)
 Frozen-core derivative calculation, NFC=   6 NFV=   0.
 FulOut=F Deriv=T AODrv=F NAtomX=    10
   MMem=         390  MDisk=          15 MDiskD=          15
  W3Min=      557760 MinDsk=      866471 NBas6D=         166
 NBas2D=       14107    NTT=       13861    LW2=     2040000
    MDV=   497755381 MDiskM=       41478 NBas2p=        7666
 Fully in-core method, ICMem=   206115149.
 IMap=   1   2   3   4   5   6   7   8   9  10  11  12  13  14  15  16  17  18  19  20
 IMap=  21
 JobTyp=1 Pass  1 fully in-core, NPsUse=  4.
 Compute canonical integrals, IntTyp=   4.
 Symmetry not used in FoFDir.
 MinBra= 0 MaxBra= 2 Meth= 1.
 IRaf=       0 NMat=   1 IRICut=       1 DoRegI=T DoRafI=F ISym2E= 0 JSym2E=0.
 Spin components of T(2) and E(2):
     alpha-alpha T2 =       0.3908781743D-01 E2=     -0.1130606594D+00
     alpha-beta  T2 =       0.2212619364D+00 E2=     -0.6428164479D+00
     beta-beta   T2 =       0.3908781743D-01 E2=     -0.1130606594D+00
 The integrals were generated   1 times.
 ANorm=    0.1139928757D+01
 E2 =    -0.8689377668D+00 EUMP2 =    -0.26741676634636D+03
 Leave Link  906 at Fri Dec  3 17:34:51 2021, MaxMem=  498073600 cpu:      71.9
 (Enter /apps/software//g09/l1002.exe)
 Minotr:  Closed shell wavefunction.
          Computing MP2/KS-MP2 derivatives.
          Using Z-Vector for PSCF gradient.
          Skipping F1 and S1 gradient terms here.
          Frozen-core window.
          Direct CPHF calculation.
          Differentiating once with respect to electric field.
                with respect to dipole field.
          Electric field/nuclear overlap derivatives assumed to be zero.
          Using symmetry in CPHF.
          Requested convergence is 1.0D-10 RMS, and 1.0D-09 maximum.
          NewPWx=F KeepS1=T KeepF1=T KeepIn=T MapXYZ=F SortEE=F KeepMc=T.
          MDV=     498073516 using IRadAn=       0.
          Keep R1 ints in memory in canonical form, NReq=96892334.
 Symmetry not used in FoFDir.
 MinBra= 0 MaxBra= 2 Meth= 1.
 IRaf=       0 NMat=   1 IRICut=       1 DoRegI=T DoRafI=F ISym2E= 0 JSym2E=0.
          Solving linear equations separately, MaxMat=       0.
          There are     1 degrees of freedom in the 1st order CPHF.  IDoFFX=0.
 LinEq1:  Iter=  0 NonCon=     1 RMS=5.06D-03 Max=9.34D-02
 AX will form     1 AO Fock derivatives at one time.
 LinEq1:  Iter=  1 NonCon=     1 RMS=1.52D-03 Max=2.03D-02
 LinEq1:  Iter=  2 NonCon=     1 RMS=5.46D-04 Max=8.99D-03
 LinEq1:  Iter=  3 NonCon=     1 RMS=2.09D-04 Max=2.65D-03
 LinEq1:  Iter=  4 NonCon=     1 RMS=7.47D-05 Max=1.56D-03
 LinEq1:  Iter=  5 NonCon=     1 RMS=2.16D-05 Max=4.67D-04
 LinEq1:  Iter=  6 NonCon=     1 RMS=8.88D-06 Max=1.36D-04
 LinEq1:  Iter=  7 NonCon=     1 RMS=2.25D-06 Max=2.82D-05
 LinEq1:  Iter=  8 NonCon=     1 RMS=3.51D-07 Max=5.17D-06
 LinEq1:  Iter=  9 NonCon=     1 RMS=5.89D-08 Max=6.34D-07
 LinEq1:  Iter= 10 NonCon=     1 RMS=1.39D-08 Max=1.52D-07
 LinEq1:  Iter= 11 NonCon=     1 RMS=4.22D-09 Max=6.50D-08
 LinEq1:  Iter= 12 NonCon=     1 RMS=8.81D-10 Max=9.22D-09
 LinEq1:  Iter= 13 NonCon=     1 RMS=1.41D-10 Max=1.32D-09
 LinEq1:  Iter= 14 NonCon=     0 RMS=2.17D-11 Max=2.72D-10
 Linear equations converged to 1.000D-10 1.000D-09 after    14 iterations.
 End of Minotr Frequency-dependent properties file   721 does not exist.
 End of Minotr Frequency-dependent properties file   722 does not exist.
 Leave Link 1002 at Fri Dec  3 17:34:55 2021, MaxMem=  498073600 cpu:      18.7
 (Enter /apps/software//g09/l601.exe)
 Copying SCF densities to generalized density rwf, IOpCl= 0 IROHF=0.

 **********************************************************************

            Population analysis using the MP2 density.

 **********************************************************************

 Orbital symmetries:
       Occupied  (A1) (A1) (A1) (B2) (B2) (A1) (A1) (A1) (B2) (A1)
                 (B2) (A1) (A1) (B2) (A1) (B2) (B1) (A1) (B1) (B2)
                 (A2)
       Virtual   (B1) (A1) (B2) (A1) (B2) (A1) (B1) (A1) (A2) (A2)
                 (B2) (B1) (A1) (B1) (A1) (B2) (A1) (B2) (B2) (A1)
                 (B2) (A1) (B2) (A2) (B1) (A1) (B2) (A1) (B2) (A1)
                 (B1) (A1) (B2) (A1) (B2) (B2) (A1) (A1) (A1) (B2)
                 (B2) (A1) (B2) (B1) (A1) (A2) (B2) (B1) (A1) (B1)
                 (A2) (B2) (A1) (A1) (B2) (A1) (B2) (A1) (B2) (B2)
                 (B2) (A1) (A1) (B1) (A1) (B2) (A2) (B1) (A2) (B1)
                 (A1) (B1) (B2) (A1) (A1) (A1) (A2) (B2) (A1) (B1)
                 (B2) (B2) (A2) (B1) (A1) (A1) (A2) (B1) (A1) (B2)
                 (B2) (A1) (B2) (A2) (A1) (B1) (B2) (A2) (A1) (B2)
                 (A1) (A1) (B2) (A1) (B1) (B2) (A1) (B2) (B2) (B1)
                 (A2) (A1) (A2) (B1) (A2) (B2) (A1) (A1) (A1) (B2)
                 (B1) (B2) (A1) (B2) (A1) (B2) (A1) (B2) (A1) (B2)
                 (B1) (B2) (A1) (A1) (B2) (A1) (B2) (A1) (A1)
 The electronic state is 1-A1.
 Alpha  occ. eigenvalues --  -20.56866 -11.34621 -11.27506 -11.27438 -11.25180
 Alpha  occ. eigenvalues --  -11.25177  -1.40449  -1.17295  -1.00779  -0.91604
 Alpha  occ. eigenvalues --   -0.77628  -0.75168  -0.70944  -0.61461  -0.60998
 Alpha  occ. eigenvalues --   -0.60192  -0.56810  -0.54875  -0.45200  -0.42745
 Alpha  occ. eigenvalues --   -0.34720
 Alpha virt. eigenvalues --    0.02825   0.03440   0.04595   0.05409   0.06794
 Alpha virt. eigenvalues --    0.10720   0.11592   0.14076   0.14511   0.14787
 Alpha virt. eigenvalues --    0.15100   0.15157   0.15444   0.17139   0.17821
 Alpha virt. eigenvalues --    0.17977   0.18959   0.19882   0.20091   0.20424
 Alpha virt. eigenvalues --    0.22103   0.22327   0.25571   0.25840   0.26790
 Alpha virt. eigenvalues --    0.26911   0.28091   0.33065   0.37034   0.37557
 Alpha virt. eigenvalues --    0.39111   0.40708   0.40832   0.42173   0.43216
 Alpha virt. eigenvalues --    0.45826   0.46066   0.51808   0.57179   0.61238
 Alpha virt. eigenvalues --    0.64459   0.67617   0.68599   0.70221   0.71610
 Alpha virt. eigenvalues --    0.72687   0.74576   0.75007   0.79362   0.80711
 Alpha virt. eigenvalues --    0.81594   0.88311   0.89011   0.92865   0.97026
 Alpha virt. eigenvalues --    0.97923   0.98089   1.01669   1.04663   1.07821
 Alpha virt. eigenvalues --    1.09136   1.09459   1.11434   1.18697   1.19848
 Alpha virt. eigenvalues --    1.24396   1.26687   1.29421   1.33996   1.37947
 Alpha virt. eigenvalues --    1.42502   1.47888   1.50728   1.52986   1.69410
 Alpha virt. eigenvalues --    1.77628   1.78299   1.78374   1.80257   1.84719
 Alpha virt. eigenvalues --    1.85418   1.95837   1.96935   1.99073   1.99780
 Alpha virt. eigenvalues --    2.04373   2.08243   2.10474   2.14808   2.18852
 Alpha virt. eigenvalues --    2.19467   2.25284   2.30777   2.40959   2.41854
 Alpha virt. eigenvalues --    2.42537   2.45219   2.55393   2.63091   2.67390
 Alpha virt. eigenvalues --    2.79337   2.85520   2.93025   2.96604   3.00632
 Alpha virt. eigenvalues --    3.00840   3.03139   3.03593   3.04410   3.11427
 Alpha virt. eigenvalues --    3.13064   3.25018   3.26386   3.32917   3.37258
 Alpha virt. eigenvalues --    3.41690   3.45410   3.56613   3.61980   3.63592
 Alpha virt. eigenvalues --    3.76079   3.88600   3.89531   3.95662   4.10633
 Alpha virt. eigenvalues --    4.42640   4.43446   4.43566   4.52488   4.99893
 Alpha virt. eigenvalues --    5.60493   5.75709   6.30179  24.79696  24.90690
 Alpha virt. eigenvalues --   25.01231  25.38440  25.41523  51.71703
          Condensed to atoms (all electrons):
              1          2          3          4          5          6
     1  C    7.829494  -1.357481  -0.170286   0.755716   0.046013  -1.357481
     2  C   -1.357481   8.898643   0.605882  -2.492688  -0.212160  -1.438854
     3  H   -0.170286   0.605882   0.520143  -0.204514  -0.017422  -0.052303
     4  C    0.755716  -2.492688  -0.204514   8.326377   0.570724   1.782988
     5  H    0.046013  -0.212160  -0.017422   0.570724   0.534140   0.094390
     6  C   -1.357481  -1.438854  -0.052303   1.782988   0.094390   8.898643
     7  H   -0.170286  -0.052303  -0.002375   0.090163   0.003079   0.605882
     8  C    0.755716   1.782988   0.090163  -2.283124  -0.212105  -2.492688
     9  H    0.046013   0.094390   0.003079  -0.212105  -0.012826  -0.212160
    10  O    0.095734  -0.023107  -0.001493  -0.040244   0.000898  -0.023107
              7          8          9         10
     1  C   -0.170286   0.755716   0.046013   0.095734
     2  C   -0.052303   1.782988   0.094390  -0.023107
     3  H   -0.002375   0.090163   0.003079  -0.001493
     4  C    0.090163  -2.283124  -0.212105  -0.040244
     5  H    0.003079  -0.212105  -0.012826   0.000898
     6  C    0.605882  -2.492688  -0.212160  -0.023107
     7  H    0.520143  -0.204514  -0.017422  -0.001493
     8  C   -0.204514   8.326377   0.570724  -0.040244
     9  H   -0.017422   0.570724   0.534140   0.000898
    10  O   -0.001493  -0.040244   0.000898   8.230596
 Mulliken atomic charges:
              1
     1  C   -0.473150
     2  C    0.194689
     3  H    0.229127
     4  C   -0.293292
     5  H    0.205270
     6  C    0.194689
     7  H    0.229127
     8  C   -0.293292
     9  H    0.205270
    10  O   -0.198437
 Sum of Mulliken atomic charges =   0.00000
 Mulliken charges with hydrogens summed into heavy atoms:
              1
     1  C   -0.473150
     2  C    0.423816
     4  C   -0.088022
     6  C    0.423816
     8  C   -0.088022
    10  O   -0.198437
 Sum of Mulliken charges with hydrogens summed into heavy atoms =   0.00000
 Electronic spatial extent (au):  <R**2>=            460.5019
 Charge=              0.0000 electrons
 Dipole moment (field-independent basis, Debye):
    X=              0.0000    Y=              0.0000    Z=             -3.0510  Tot=              3.0510
 Quadrupole moment (field-independent basis, Debye-Ang):
   XX=            -36.9359   YY=            -31.2893   ZZ=            -37.6366
   XY=              0.0000   XZ=              0.0000   YZ=              0.0000
 Traceless Quadrupole moment (field-independent basis, Debye-Ang):
   XX=             -1.6487   YY=              3.9980   ZZ=             -2.3493
   XY=              0.0000   XZ=              0.0000   YZ=              0.0000
 Octapole moment (field-independent basis, Debye-Ang**2):
  XXX=              0.0000  YYY=              0.0000  ZZZ=            -18.2910  XYY=              0.0000
  XXY=              0.0000  XXZ=              5.2604  XZZ=              0.0000  YZZ=              0.0000
  YYZ=              1.5724  XYZ=              0.0000
 Hexadecapole moment (field-independent basis, Debye-Ang**3):
 XXXX=            -42.2287 YYYY=           -197.9059 ZZZZ=           -366.1634 XXXY=              0.0000
 XXXZ=              0.0000 YYYX=              0.0000 YYYZ=              0.0000 ZZZX=              0.0000
 ZZZY=              0.0000 XXYY=            -49.7178 XXZZ=            -67.6753 YYZZ=            -90.2168
 XXYZ=              0.0000 YYXZ=              0.0000 ZZXY=              0.0000
 N-N= 2.002753654893D+02 E-N=-1.024969183105D+03  KE= 2.673265801994D+02
 Symmetry A1   KE= 1.790277318013D+02
 Symmetry A2   KE= 2.363060839987D+00
 Symmetry B1   KE= 5.768436961667D+00
 Symmetry B2   KE= 8.016735059636D+01
 No NMR shielding tensors so no spin-rotation constants.
 Leave Link  601 at Fri Dec  3 17:34:56 2021, MaxMem=  498073600 cpu:       0.7
 (Enter /apps/software//g09/l9999.exe)
 1\1\GINC-DLT01\SP\RMP2-FC\6-311++G(d,p)\C5H4O1\ITAMAR\03-Dec-2021\0\\#
 P MP2/6-311++G** DENSITY=MP2\\Penta-O\\0,1\C,0,0.,0.,0.823052\C,0,0.,1
 .204646,-0.088504\H,0,0.,2.223506,0.268126\C,0,0.,0.751566,-1.346802\H
 ,0,0.,1.346186,-2.250654\C,0,0.,-1.204646,-0.088504\H,0,0.,-2.223506,0
 .268126\C,0,0.,-0.751566,-1.346802\H,0,0.,-1.346186,-2.250654\O,0,0.,0
 .,2.031302\\Version=EM64L-G09RevA.02\State=1-A1\HF=-266.5478286\MP2=-2
 67.4167663\RMSD=5.272e-09\Dipole=0.,0.,-1.2003694\Quadrupole=-1.225741
 7,2.9724153,-1.7466736,0.,0.,0.\PG=C02V [C2(C1O1),SGV(C4H4)]\\@


 If fifty million people say a stupid thing,
 it is still a stupid thing.
                   -- Anatole France
 The theorems and results in mathematical physics are
 not theorems and results about Nature, but about our
 description of it.
                   --Gerard 't Hooft
 Job cpu time:  0 days  0 hours  1 minutes 51.7 seconds.
 File lengths (MBytes):  RWF=     15 Int=      0 D2E=      0 Chk=      3 Scr=      1
 Normal termination of Gaussian 09 at Fri Dec  3 17:34:56 2021.
