 Entering Gaussian System, Link 0=g09
 Initial command:
 /apps/software//g09/l1.exe /scratch/itamar/3042.cluster.abaxnet/Gau-27518.inp -scrdir=/scratch/itamar/3042.cluster.abaxnet/
 Entering Link 1 = /apps/software//g09/l1.exe PID=     27519.
  
 Copyright (c) 1988,1990,1992,1993,1995,1998,2003,2009, Gaussian, Inc.
                  All Rights Reserved.
  
 This is part of the Gaussian(R) 09 program.  It is based on
 the Gaussian(R) 03 system (copyright 2003, Gaussian, Inc.),
 the Gaussian(R) 98 system (copyright 1998, Gaussian, Inc.),
 the Gaussian(R) 94 system (copyright 1995, Gaussian, Inc.),
 the Gaussian 92(TM) system (copyright 1992, Gaussian, Inc.),
 the Gaussian 90(TM) system (copyright 1990, Gaussian, Inc.),
 the Gaussian 88(TM) system (copyright 1988, Gaussian, Inc.),
 the Gaussian 86(TM) system (copyright 1986, Carnegie Mellon
 University), and the Gaussian 82(TM) system (copyright 1983,
 Carnegie Mellon University). Gaussian is a federally registered
 trademark of Gaussian, Inc.
  
 This software contains proprietary and confidential information,
 including trade secrets, belonging to Gaussian, Inc.
  
 This software is provided under written license and may be
 used, copied, transmitted, or stored only in accord with that
 written license.
  
 The following legend is applicable only to US Government
 contracts under FAR:
  
                    RESTRICTED RIGHTS LEGEND
  
 Use, reproduction and disclosure by the US Government is
 subject to restrictions as set forth in subparagraphs (a)
 and (c) of the Commercial Computer Software - Restricted
 Rights clause in FAR 52.227-19.
  
 Gaussian, Inc.
 340 Quinnipiac St., Bldg. 40, Wallingford CT 06492
  
  
 ---------------------------------------------------------------
 Warning -- This program may not be used in any manner that
 competes with the business of Gaussian, Inc. or will provide
 assistance to any competitor of Gaussian, Inc.  The licensee
 of this program is prohibited from giving any competitor of
 Gaussian, Inc. access to this program.  By using this program,
 the user acknowledges that Gaussian, Inc. is engaged in the
 business of creating and licensing software in the field of
 computational chemistry and represents and warrants to the
 licensee that it is not a competitor of Gaussian, Inc. and that
 it will not use this program in any manner prohibited above.
 ---------------------------------------------------------------
  

 Cite this work as:
 Gaussian 09, Revision A.02,
 M. J. Frisch, G. W. Trucks, H. B. Schlegel, G. E. Scuseria, 
 M. A. Robb, J. R. Cheeseman, G. Scalmani, V. Barone, B. Mennucci, 
 G. A. Petersson, H. Nakatsuji, M. Caricato, X. Li, H. P. Hratchian, 
 A. F. Izmaylov, J. Bloino, G. Zheng, J. L. Sonnenberg, M. Hada, 
 M. Ehara, K. Toyota, R. Fukuda, J. Hasegawa, M. Ishida, T. Nakajima, 
 Y. Honda, O. Kitao, H. Nakai, T. Vreven, J. A. Montgomery, Jr., 
 J. E. Peralta, F. Ogliaro, M. Bearpark, J. J. Heyd, E. Brothers, 
 K. N. Kudin, V. N. Staroverov, R. Kobayashi, J. Normand, 
 K. Raghavachari, A. Rendell, J. C. Burant, S. S. Iyengar, J. Tomasi, 
 M. Cossi, N. Rega, J. M. Millam, M. Klene, J. E. Knox, J. B. Cross, 
 V. Bakken, C. Adamo, J. Jaramillo, R. Gomperts, R. E. Stratmann, 
 O. Yazyev, A. J. Austin, R. Cammi, C. Pomelli, J. W. Ochterski, 
 R. L. Martin, K. Morokuma, V. G. Zakrzewski, G. A. Voth, 
 P. Salvador, J. J. Dannenberg, S. Dapprich, A. D. Daniels, 
 O. Farkas, J. B. Foresman, J. V. Ortiz, J. Cioslowski, 
 and D. J. Fox, Gaussian, Inc., Wallingford CT, 2009.
 
 ******************************************
 Gaussian 09:  EM64L-G09RevA.02 11-Jun-2009
                22-Dec-2021 
 ******************************************
 %Mem=3800MB
 %NProcShared=6
 Will use up to    6 processors via shared memory.
 %chk=/home/itamar/Aromaticity-test-set/T12-old-T14-Fulvenes/Hepta-NH2+/hept-nh2p
 .chk
 -----------------------------
 #P MP2/6-311++G** DENSITY=MP2
 -----------------------------
 1/30=1,38=1/1;
 2/12=2,17=6,18=5,40=1/2;
 3/5=4,6=6,7=1111,11=9,16=1,25=1,30=1,71=1/1,2,3;
 4//1;
 5/5=2,38=5/2;
 8/6=4,10=2/1;
 9/15=1,16=-3/6;
 10/5=1,13=10/2;
 6/7=2,8=2,9=2,10=2,22=2/1;
 99/5=1,9=1/99;
 Leave Link    1 at Wed Dec 22 20:27:33 2021, MaxMem=  498073600 cpu:       0.2
 (Enter /apps/software//g09/l101.exe)
 ----
 14-H
 ----
 Symbolic Z-matrix:
 Charge =  1 Multiplicity = 1
 6                     0.68605  -1.91179   0. 
 6                     1.55263  -0.79074   0. 
 6                    -0.68587  -1.91185   0. 
 6                    -1.55255  -0.79087   0. 
 6                    -1.2669    0.54996   0. 
 6                     0.        1.20661   0. 
 6                     1.26691   0.5501    0. 
 1                    -2.12687   1.21367   0. 
 1                     2.12689   1.2138    0. 
 1                     2.61122  -1.03133   0. 
 1                     1.17474  -2.88018   0. 
 1                    -1.17446  -2.8803    0. 
 1                    -2.61113  -1.03151   0. 
 7                    -0.00021   2.54761   0. 
 1                    -0.85959   3.07691   0. 
 1                     0.85906   3.07708   0. 
 
 NAtoms=     16 NQM=     16 NQMF=      0 NMic=      0 NMicF=      0 NTot=     16.
                    Isotopes and Nuclear Properties:
 (Nuclear quadrupole moments (NQMom) in fm**2, nuclear magnetic moments (NMagM)
  in nuclear magnetons)

  Atom         1           2           3           4           5           6           7           8           9          10
 IAtWgt=          12          12          12          12          12          12          12           1           1           1
 AtmWgt=  12.0000000  12.0000000  12.0000000  12.0000000  12.0000000  12.0000000  12.0000000   1.0078250   1.0078250   1.0078250
 NucSpn=           0           0           0           0           0           0           0           1           1           1
 AtZEff=   0.0000000   0.0000000   0.0000000   0.0000000   0.0000000   0.0000000   0.0000000   0.0000000   0.0000000   0.0000000
 NQMom=    0.0000000   0.0000000   0.0000000   0.0000000   0.0000000   0.0000000   0.0000000   0.0000000   0.0000000   0.0000000
 NMagM=    0.0000000   0.0000000   0.0000000   0.0000000   0.0000000   0.0000000   0.0000000   2.7928460   2.7928460   2.7928460

  Atom        11          12          13          14          15          16
 IAtWgt=           1           1           1          14           1           1
 AtmWgt=   1.0078250   1.0078250   1.0078250  14.0030740   1.0078250   1.0078250
 NucSpn=           1           1           1           2           1           1
 AtZEff=   0.0000000   0.0000000   0.0000000   0.0000000   0.0000000   0.0000000
 NQMom=    0.0000000   0.0000000   0.0000000   2.0440000   0.0000000   0.0000000
 NMagM=    2.7928460   2.7928460   2.7928460   0.4037610   2.7928460   2.7928460
 Leave Link  101 at Wed Dec 22 20:27:33 2021, MaxMem=  498073600 cpu:       0.2
 (Enter /apps/software//g09/l202.exe)
                          Input orientation:                          
 ---------------------------------------------------------------------
 Center     Atomic      Atomic             Coordinates (Angstroms)
 Number     Number       Type             X           Y           Z
 ---------------------------------------------------------------------
      1          6           0        0.686049   -1.911788    0.000000
      2          6           0        1.552632   -0.790742    0.000000
      3          6           0       -0.685871   -1.911851    0.000000
      4          6           0       -1.552553   -0.790867    0.000000
      5          6           0       -1.266904    0.549956    0.000000
      6          6           0        0.000000    1.206614    0.000000
      7          6           0        1.266909    0.550104    0.000000
      8          1           0       -2.126866    1.213671    0.000000
      9          1           0        2.126886    1.213799    0.000000
     10          1           0        2.611223   -1.031326    0.000000
     11          1           0        1.174737   -2.880184    0.000000
     12          1           0       -1.174461   -2.880297    0.000000
     13          1           0       -2.611128   -1.031515    0.000000
     14          7           0       -0.000206    2.547614    0.000000
     15          1           0       -0.859586    3.076913    0.000000
     16          1           0        0.859064    3.077078    0.000000
 ---------------------------------------------------------------------
                    Distance matrix (angstroms):
                    1          2          3          4          5
     1  C    0.000000
     2  C    1.416937   0.000000
     3  C    1.371920   2.503554   0.000000
     4  C    2.503558   3.105185   1.416948   0.000000
     5  C    3.142325   3.122059   2.529445   1.370913   0.000000
     6  C    3.192976   2.529841   3.192999   2.529892   1.426971
     7  C    2.529488   1.370951   3.142383   3.122110   2.533813
     8  H    4.204876   4.190033   3.441708   2.085188   1.086302
     9  H    3.441701   2.085174   4.204913   4.190102   3.458106
    10  H    2.116957   1.085585   3.412646   4.170714   4.188117
    11  H    1.084715   2.123340   2.097506   3.435601   4.210400
    12  H    2.097500   3.435590   1.084716   2.123363   3.431498
    13  H    3.412661   4.170716   2.116980   1.085584   2.075569
    14  N    4.511897   3.681837   4.511869   3.681744   2.365409
    15  H    5.222655   4.558240   4.991788   3.929367   2.559574
    16  H    4.991865   3.929512   5.222666   4.558168   3.302436
                    6          7          8          9         10
     6  C    0.000000
     7  C    1.426907   0.000000
     8  H    2.126878   3.458038   0.000000
     9  H    2.126898   1.086302   4.253752   0.000000
    10  H    3.439020   2.075597   5.243043   2.296774   0.000000
    11  H    4.252285   3.431526   5.259299   4.203247   2.341318
    12  H    4.252317   4.210456   4.203290   5.259326   4.213086
    13  H    3.439071   4.188161   2.296817   5.243111   5.222351
    14  N    1.341000   2.365508   2.510396   2.510694   4.430392
    15  H    2.058375   3.302536   2.253368   3.519973   5.378117
    16  H    2.058307   2.559675   3.519668   2.253704   4.466435
                   11         12         13         14         15
    11  H    0.000000
    12  H    2.349198   0.000000
    13  H    4.213117   2.341369   0.000000
    14  N    5.553511   5.553476   4.430246   0.000000
    15  H    6.294877   5.965526   4.466215   1.009302   0.000000
    16  H    5.965620   6.294882   5.377989   1.009295   1.718650
                   16
    16  H    0.000000
 Stoichiometry    C7H8N(1+)
 Framework group  CS[SG(C7H8N)]
 Deg. of freedom    29
 Full point group                 CS      NOp   2
 Largest Abelian subgroup         CS      NOp   2
 Largest concise Abelian subgroup C1      NOp   1
                         Standard orientation:                         
 ---------------------------------------------------------------------
 Center     Atomic      Atomic             Coordinates (Angstroms)
 Number     Number       Type             X           Y           Z
 ---------------------------------------------------------------------
      1          6           0        0.686049   -1.911788    0.000000
      2          6           0        1.552632   -0.790742    0.000000
      3          6           0       -0.685871   -1.911851    0.000000
      4          6           0       -1.552553   -0.790867    0.000000
      5          6           0       -1.266904    0.549956    0.000000
      6          6           0        0.000000    1.206614    0.000000
      7          6           0        1.266909    0.550104    0.000000
      8          1           0       -2.126866    1.213671    0.000000
      9          1           0        2.126886    1.213799    0.000000
     10          1           0        2.611223   -1.031326    0.000000
     11          1           0        1.174737   -2.880184    0.000000
     12          1           0       -1.174461   -2.880297    0.000000
     13          1           0       -2.611128   -1.031515    0.000000
     14          7           0       -0.000206    2.547614    0.000000
     15          1           0       -0.859586    3.076913    0.000000
     16          1           0        0.859064    3.077078    0.000000
 ---------------------------------------------------------------------
 Rotational constants (GHZ):      3.7491621      1.9493097      1.2824979
 Leave Link  202 at Wed Dec 22 20:27:33 2021, MaxMem=  498073600 cpu:       0.0
 (Enter /apps/software//g09/l301.exe)
 Standard basis: 6-311++G(d,p) (5D, 7F)
 Ernie: Thresh=  0.10000D-02 Tol=  0.10000D-05 Strict=F.
 There are   176 symmetry adapted basis functions of A'  symmetry.
 There are    56 symmetry adapted basis functions of A"  symmetry.
 Integral buffers will be    131072 words long.
 Raffenetti 1 integral format.
 Two-electron integral symmetry is turned on.
   232 basis functions,   360 primitive gaussians,   240 cartesian basis functions
    28 alpha electrons       28 beta electrons
       nuclear repulsion energy       334.0370157392 Hartrees.
 IExCor=    0 DFT=F Ex=HF Corr=None ExCW=0 ScaHFX=  1.000000
 ScaDFX=  1.000000  1.000000  1.000000  1.000000 ScalE2=  1.000000  1.000000
 IRadAn=      0 IRanWt=     -1 IRanGd=            0 ICorTp=0
 NAtoms=   16 NActive=   16 NUniq=   16 SFac= 7.50D-01 NAtFMM=   80 NAOKFM=F Big=F
 Leave Link  301 at Wed Dec 22 20:27:33 2021, MaxMem=  498073600 cpu:       0.2
 (Enter /apps/software//g09/l302.exe)
 NPDir=0 NMtPBC=     1 NCelOv=     1 NCel=       1 NClECP=     1 NCelD=      1
         NCelK=      1 NCelE2=     1 NClLst=     1 CellRange=     0.0.
 One-electron integrals computed using PRISM.
 NBasis=   232 RedAO= T  NBF=   176    56
 NBsUse=   232 1.00D-06 NBFU=   176    56
 Leave Link  302 at Wed Dec 22 20:27:34 2021, MaxMem=  498073600 cpu:       1.5
 (Enter /apps/software//g09/l303.exe)
 DipDrv:  MaxL=1.
 Leave Link  303 at Wed Dec 22 20:27:34 2021, MaxMem=  498073600 cpu:       0.3
 (Enter /apps/software//g09/l401.exe)
 Harris functional with IExCor=  205 diagonalized for initial guess.
 ExpMin= 3.60D-02 ExpMax= 6.29D+03 ExpMxC= 9.49D+02 IAcc=3 IRadAn=         0 AccDes= 0.00D+00
 HarFok:  IExCor=  205 AccDes= 0.00D+00 IRadAn=         0 IDoV= 1
 ScaDFX=  1.000000  1.000000  1.000000  1.000000
 FoFCou: FMM=F IPFlag=           0 FMFlag=      100000 FMFlg1=           0
         NFxFlg=           0 DoJE=T BraDBF=F KetDBF=T FulRan=T
         Omega=  0.000000  0.000000  1.000000  0.000000  0.000000 ICntrl=     500 IOpCl=  0
         NMat0=    1 NMatS0=    1 NMatT0=    0 NMatD0=    1 NMtDS0=    0 NMtDT0=    0
         I1Cent=           4 NGrid=           0.
 Petite list used in FoFCou.
 Harris En= -324.503640639384    
 Initial guess orbital symmetries:
       Occupied  (A') (A') (A') (A') (A') (A') (A') (A') (A') (A')
                 (A') (A') (A') (A') (A') (A') (A') (A') (A') (A')
                 (A') (A') (A") (A') (A') (A") (A") (A")
       Virtual   (A") (A") (A") (A') (A") (A') (A') (A') (A') (A')
                 (A') (A') (A") (A') (A") (A") (A') (A') (A') (A')
                 (A') (A') (A') (A') (A') (A") (A") (A') (A') (A')
                 (A') (A') (A") (A") (A') (A") (A') (A') (A') (A')
                 (A') (A') (A') (A') (A') (A') (A') (A') (A') (A')
                 (A') (A') (A') (A') (A') (A') (A') (A') (A') (A')
                 (A") (A') (A') (A') (A') (A') (A') (A") (A") (A")
                 (A") (A') (A") (A") (A') (A') (A') (A') (A') (A')
                 (A') (A') (A') (A") (A') (A') (A') (A') (A') (A')
                 (A') (A') (A') (A") (A') (A") (A") (A") (A') (A")
                 (A') (A') (A") (A") (A') (A") (A') (A') (A') (A')
                 (A') (A') (A') (A') (A") (A") (A") (A") (A') (A')
                 (A') (A') (A') (A") (A') (A") (A") (A') (A') (A")
                 (A') (A") (A') (A') (A") (A') (A') (A') (A") (A')
                 (A') (A") (A') (A") (A') (A") (A') (A') (A') (A')
                 (A") (A") (A') (A') (A") (A') (A') (A') (A') (A')
                 (A') (A') (A") (A") (A') (A') (A') (A") (A') (A")
                 (A') (A") (A') (A") (A') (A') (A') (A') (A') (A')
                 (A') (A') (A') (A') (A') (A') (A") (A') (A') (A')
                 (A') (A') (A') (A') (A') (A') (A') (A') (A') (A')
                 (A') (A') (A') (A')
 The electronic state of the initial guess is 1-A'.
 Leave Link  401 at Wed Dec 22 20:27:35 2021, MaxMem=  498073600 cpu:       4.9
 (Enter /apps/software//g09/l502.exe)
 Closed shell SCF:
 Requested convergence on RMS density matrix=1.00D-08 within 128 cycles.
 Requested convergence on MAX density matrix=1.00D-06.
 Requested convergence on             energy=1.00D-06.
 No special actions if energy rises.
 Using DIIS extrapolation, IDIIS=  1040.
 Integral symmetry usage will be decided dynamically.
 Keep R1 ints in memory in canonical form, NReq=425390580.
 IEnd=      194266 IEndB=      194266 NGot=   498073600 MDV=    79756127
 LenX=    79756127 LenY=    79698086
 Symmetry not used in FoFDir.
 MinBra= 0 MaxBra= 2 Meth= 1.
 IRaf=       0 NMat=   1 IRICut=       1 DoRegI=T DoRafI=F ISym2E= 0 JSym2E=0.

 Cycle   1  Pass 1  IDiag  1:
 E= -323.731700031685    
 DIIS: error= 5.88D-02 at cycle   1 NSaved=   1.
 NSaved= 1 IEnMin= 1 EnMin= -323.731700031685     IErMin= 1 ErrMin= 5.88D-02
 ErrMax= 5.88D-02 EMaxC= 1.00D-01 BMatC= 6.19D-01 BMatP= 6.19D-01
 IDIUse=3 WtCom= 4.12D-01 WtEn= 5.88D-01
 Coeff-Com:  0.100D+01
 Coeff-En:   0.100D+01
 Coeff:      0.100D+01
 Gap=     0.393 Goal=   None    Shift=    0.000
 GapD=    0.393 DampG=1.000 DampE=0.500 DampFc=0.5000 IDamp=-1.
 Damping current iteration by 5.00D-01
 RMSDP=1.25D-02 MaxDP=4.04D-01              OVMax= 1.43D-01

 Cycle   2  Pass 1  IDiag  1:
 E= -323.882582061559     Delta-E=       -0.150882029874 Rises=F Damp=T
 DIIS: error= 2.52D-02 at cycle   2 NSaved=   2.
 NSaved= 2 IEnMin= 2 EnMin= -323.882582061559     IErMin= 2 ErrMin= 2.52D-02
 ErrMax= 2.52D-02 EMaxC= 1.00D-01 BMatC= 1.47D-01 BMatP= 6.19D-01
 IDIUse=3 WtCom= 7.48D-01 WtEn= 2.52D-01
 Coeff-Com: -0.818D+00 0.182D+01
 Coeff-En:   0.000D+00 0.100D+01
 Coeff:     -0.612D+00 0.161D+01
 Gap=     0.377 Goal=   None    Shift=    0.000
 RMSDP=2.10D-02 MaxDP=1.07D+00 DE=-1.51D-01 OVMax= 4.10D-02

 Cycle   3  Pass 1  IDiag  1:
 E= -324.021794786985     Delta-E=       -0.139212725426 Rises=F Damp=F
 DIIS: error= 4.81D-03 at cycle   3 NSaved=   3.
 NSaved= 3 IEnMin= 3 EnMin= -324.021794786985     IErMin= 3 ErrMin= 4.81D-03
 ErrMax= 4.81D-03 EMaxC= 1.00D-01 BMatC= 1.60D-03 BMatP= 1.47D-01
 IDIUse=3 WtCom= 9.52D-01 WtEn= 4.81D-02
 Coeff-Com: -0.127D+00 0.221D+00 0.907D+00
 Coeff-En:   0.000D+00 0.000D+00 0.100D+01
 Coeff:     -0.121D+00 0.210D+00 0.911D+00
 Gap=     0.367 Goal=   None    Shift=    0.000
 RMSDP=4.18D-03 MaxDP=3.06D-01 DE=-1.39D-01 OVMax= 2.06D-02

 Cycle   4  Pass 1  IDiag  1:
 E= -324.023519273959     Delta-E=       -0.001724486974 Rises=F Damp=F
 DIIS: error= 2.01D-03 at cycle   4 NSaved=   4.
 NSaved= 4 IEnMin= 4 EnMin= -324.023519273959     IErMin= 4 ErrMin= 2.01D-03
 ErrMax= 2.01D-03 EMaxC= 1.00D-01 BMatC= 2.17D-04 BMatP= 1.60D-03
 IDIUse=3 WtCom= 9.80D-01 WtEn= 2.01D-02
 Coeff-Com: -0.155D-01 0.172D-01 0.252D+00 0.747D+00
 Coeff-En:   0.000D+00 0.000D+00 0.000D+00 0.100D+01
 Coeff:     -0.152D-01 0.168D-01 0.247D+00 0.752D+00
 Gap=     0.366 Goal=   None    Shift=    0.000
 RMSDP=4.49D-04 MaxDP=2.03D-02 DE=-1.72D-03 OVMax= 6.09D-03

 Cycle   5  Pass 1  IDiag  1:
 E= -324.023796268435     Delta-E=       -0.000276994476 Rises=F Damp=F
 DIIS: error= 1.10D-03 at cycle   5 NSaved=   5.
 NSaved= 5 IEnMin= 5 EnMin= -324.023796268435     IErMin= 5 ErrMin= 1.10D-03
 ErrMax= 1.10D-03 EMaxC= 1.00D-01 BMatC= 2.57D-05 BMatP= 2.17D-04
 IDIUse=3 WtCom= 9.89D-01 WtEn= 1.10D-02
 Coeff-Com:  0.151D-01-0.273D-01-0.976D-01 0.738D-01 0.104D+01
 Coeff-En:   0.000D+00 0.000D+00 0.000D+00 0.000D+00 0.100D+01
 Coeff:      0.150D-01-0.270D-01-0.965D-01 0.730D-01 0.104D+01
 Gap=     0.367 Goal=   None    Shift=    0.000
 RMSDP=6.92D-04 MaxDP=4.85D-02 DE=-2.77D-04 OVMax= 5.16D-03

 Cycle   6  Pass 1  IDiag  1:
 E= -324.023870812093     Delta-E=       -0.000074543657 Rises=F Damp=F
 DIIS: error= 3.55D-04 at cycle   6 NSaved=   6.
 NSaved= 6 IEnMin= 6 EnMin= -324.023870812093     IErMin= 6 ErrMin= 3.55D-04
 ErrMax= 3.55D-04 EMaxC= 1.00D-01 BMatC= 4.16D-06 BMatP= 2.57D-05
 IDIUse=3 WtCom= 9.96D-01 WtEn= 3.55D-03
 Coeff-Com:  0.546D-04 0.114D-02-0.198D-01-0.133D+00-0.727D-01 0.122D+01
 Coeff-En:   0.000D+00 0.000D+00 0.000D+00 0.000D+00 0.000D+00 0.100D+01
 Coeff:      0.544D-04 0.114D-02-0.197D-01-0.132D+00-0.725D-01 0.122D+01
 Gap=     0.368 Goal=   None    Shift=    0.000
 RMSDP=2.04D-04 MaxDP=1.48D-02 DE=-7.45D-05 OVMax= 2.48D-03

 Cycle   7  Pass 1  IDiag  1:
 E= -324.023889124010     Delta-E=       -0.000018311917 Rises=F Damp=F
 DIIS: error= 1.63D-04 at cycle   7 NSaved=   7.
 NSaved= 7 IEnMin= 7 EnMin= -324.023889124010     IErMin= 7 ErrMin= 1.63D-04
 ErrMax= 1.63D-04 EMaxC= 1.00D-01 BMatC= 5.99D-07 BMatP= 4.16D-06
 IDIUse=3 WtCom= 9.98D-01 WtEn= 1.63D-03
 Coeff-Com: -0.248D-02 0.417D-02 0.214D-01 0.249D-01-0.103D+00-0.420D+00
 Coeff-Com:  0.148D+01
 Coeff-En:   0.000D+00 0.000D+00 0.000D+00 0.000D+00 0.000D+00 0.000D+00
 Coeff-En:   0.100D+01
 Coeff:     -0.247D-02 0.416D-02 0.214D-01 0.248D-01-0.103D+00-0.420D+00
 Coeff:      0.147D+01
 Gap=     0.368 Goal=   None    Shift=    0.000
 RMSDP=2.94D-05 MaxDP=9.34D-04 DE=-1.83D-05 OVMax= 1.55D-03

 Cycle   8  Pass 1  IDiag  1:
 E= -324.023892876944     Delta-E=       -0.000003752934 Rises=F Damp=F
 DIIS: error= 6.19D-05 at cycle   8 NSaved=   8.
 NSaved= 8 IEnMin= 8 EnMin= -324.023892876944     IErMin= 8 ErrMin= 6.19D-05
 ErrMax= 6.19D-05 EMaxC= 1.00D-01 BMatC= 7.22D-08 BMatP= 5.99D-07
 IDIUse=1 WtCom= 1.00D+00 WtEn= 0.00D+00
 Coeff-Com: -0.502D-03 0.769D-03 0.440D-02 0.118D-01-0.898D-02-0.142D+00
 Coeff-Com:  0.112D+00 0.102D+01
 Coeff:     -0.502D-03 0.769D-03 0.440D-02 0.118D-01-0.898D-02-0.142D+00
 Coeff:      0.112D+00 0.102D+01
 Gap=     0.368 Goal=   None    Shift=    0.000
 RMSDP=1.30D-05 MaxDP=7.69D-04 DE=-3.75D-06 OVMax= 5.04D-04

 Cycle   9  Pass 1  IDiag  1:
 E= -324.023893341777     Delta-E=       -0.000000464833 Rises=F Damp=F
 DIIS: error= 2.50D-05 at cycle   9 NSaved=   9.
 NSaved= 9 IEnMin= 9 EnMin= -324.023893341777     IErMin= 9 ErrMin= 2.50D-05
 ErrMax= 2.50D-05 EMaxC= 1.00D-01 BMatC= 3.02D-08 BMatP= 7.22D-08
 IDIUse=1 WtCom= 1.00D+00 WtEn= 0.00D+00
 Coeff-Com:  0.740D-03-0.121D-02-0.712D-02-0.114D-01 0.284D-01 0.178D+00
 Coeff-Com: -0.514D+00 0.573D-01 0.127D+01
 Coeff:      0.740D-03-0.121D-02-0.712D-02-0.114D-01 0.284D-01 0.178D+00
 Coeff:     -0.514D+00 0.573D-01 0.127D+01
 Gap=     0.368 Goal=   None    Shift=    0.000
 RMSDP=9.20D-06 MaxDP=3.68D-04 DE=-4.65D-07 OVMax= 3.53D-04

 Cycle  10  Pass 1  IDiag  1:
 E= -324.023893497006     Delta-E=       -0.000000155229 Rises=F Damp=F
 DIIS: error= 9.26D-06 at cycle  10 NSaved=  10.
 NSaved=10 IEnMin=10 EnMin= -324.023893497006     IErMin=10 ErrMin= 9.26D-06
 ErrMax= 9.26D-06 EMaxC= 1.00D-01 BMatC= 3.14D-09 BMatP= 3.02D-08
 IDIUse=1 WtCom= 1.00D+00 WtEn= 0.00D+00
 Coeff-Com:  0.458D-04-0.597D-04-0.445D-03-0.196D-02-0.372D-02 0.250D-01
 Coeff-Com: -0.110D-01-0.143D+00-0.237D+00 0.137D+01
 Coeff:      0.458D-04-0.597D-04-0.445D-03-0.196D-02-0.372D-02 0.250D-01
 Coeff:     -0.110D-01-0.143D+00-0.237D+00 0.137D+01
 Gap=     0.368 Goal=   None    Shift=    0.000
 RMSDP=5.16D-06 MaxDP=2.66D-04 DE=-1.55D-07 OVMax= 1.84D-04

 Cycle  11  Pass 1  IDiag  1:
 E= -324.023893518984     Delta-E=       -0.000000021979 Rises=F Damp=F
 DIIS: error= 1.26D-06 at cycle  11 NSaved=  11.
 NSaved=11 IEnMin=11 EnMin= -324.023893518984     IErMin=11 ErrMin= 1.26D-06
 ErrMax= 1.26D-06 EMaxC= 1.00D-01 BMatC= 2.24D-10 BMatP= 3.14D-09
 IDIUse=1 WtCom= 1.00D+00 WtEn= 0.00D+00
 Coeff-Com: -0.483D-04 0.828D-04 0.479D-03 0.653D-03-0.310D-02-0.777D-02
 Coeff-Com:  0.403D-01-0.197D-01-0.155D+00 0.239D+00 0.905D+00
 Coeff:     -0.483D-04 0.828D-04 0.479D-03 0.653D-03-0.310D-02-0.777D-02
 Coeff:      0.403D-01-0.197D-01-0.155D+00 0.239D+00 0.905D+00
 Gap=     0.368 Goal=   None    Shift=    0.000
 RMSDP=1.03D-06 MaxDP=7.06D-05 DE=-2.20D-08 OVMax= 1.34D-05

 Cycle  12  Pass 1  IDiag  1:
 E= -324.023893519410     Delta-E=       -0.000000000425 Rises=F Damp=F
 DIIS: error= 3.51D-07 at cycle  12 NSaved=  12.
 NSaved=12 IEnMin=12 EnMin= -324.023893519410     IErMin=12 ErrMin= 3.51D-07
 ErrMax= 3.51D-07 EMaxC= 1.00D-01 BMatC= 1.37D-11 BMatP= 2.24D-10
 IDIUse=1 WtCom= 1.00D+00 WtEn= 0.00D+00
 Coeff-Com: -0.188D-05 0.235D-05-0.801D-05 0.141D-03 0.229D-03-0.104D-02
 Coeff-Com: -0.328D-02 0.128D-01 0.287D-01-0.123D+00-0.706D-01 0.116D+01
 Coeff:     -0.188D-05 0.235D-05-0.801D-05 0.141D-03 0.229D-03-0.104D-02
 Coeff:     -0.328D-02 0.128D-01 0.287D-01-0.123D+00-0.706D-01 0.116D+01
 Gap=     0.368 Goal=   None    Shift=    0.000
 RMSDP=2.45D-07 MaxDP=1.43D-05 DE=-4.25D-10 OVMax= 5.83D-06

 Cycle  13  Pass 1  IDiag  1:
 E= -324.023893519451     Delta-E=       -0.000000000042 Rises=F Damp=F
 DIIS: error= 9.66D-08 at cycle  13 NSaved=  13.
 NSaved=13 IEnMin=13 EnMin= -324.023893519451     IErMin=13 ErrMin= 9.66D-08
 ErrMax= 9.66D-08 EMaxC= 1.00D-01 BMatC= 1.31D-12 BMatP= 1.37D-11
 IDIUse=1 WtCom= 1.00D+00 WtEn= 0.00D+00
 Coeff-Com:  0.283D-05-0.453D-05-0.365D-04-0.489D-04 0.113D-03 0.925D-03
 Coeff-Com: -0.251D-02-0.111D-02 0.656D-02 0.437D-02-0.572D-01-0.216D+00
 Coeff-Com:  0.126D+01
 Coeff:      0.283D-05-0.453D-05-0.365D-04-0.489D-04 0.113D-03 0.925D-03
 Coeff:     -0.251D-02-0.111D-02 0.656D-02 0.437D-02-0.572D-01-0.216D+00
 Coeff:      0.126D+01
 Gap=     0.368 Goal=   None    Shift=    0.000
 RMSDP=7.00D-08 MaxDP=3.89D-06 DE=-4.16D-11 OVMax= 1.22D-06

 Cycle  14  Pass 1  IDiag  1:
 E= -324.023893519455     Delta-E=       -0.000000000003 Rises=F Damp=F
 DIIS: error= 3.22D-08 at cycle  14 NSaved=  14.
 NSaved=14 IEnMin=14 EnMin= -324.023893519455     IErMin=14 ErrMin= 3.22D-08
 ErrMax= 3.22D-08 EMaxC= 1.00D-01 BMatC= 8.57D-14 BMatP= 1.31D-12
 IDIUse=1 WtCom= 1.00D+00 WtEn= 0.00D+00
 Coeff-Com:  0.245D-06-0.310D-06-0.285D-05-0.584D-05-0.158D-04 0.152D-03
 Coeff-Com:  0.953D-06-0.906D-03-0.108D-02 0.736D-02 0.253D-03-0.786D-01
 Coeff-Com:  0.769D-01 0.996D+00
 Coeff:      0.245D-06-0.310D-06-0.285D-05-0.584D-05-0.158D-04 0.152D-03
 Coeff:      0.953D-06-0.906D-03-0.108D-02 0.736D-02 0.253D-03-0.786D-01
 Coeff:      0.769D-01 0.996D+00
 Gap=     0.368 Goal=   None    Shift=    0.000
 RMSDP=1.90D-08 MaxDP=1.42D-06 DE=-3.41D-12 OVMax= 1.98D-07

 Cycle  15  Pass 1  IDiag  1:
 E= -324.023893519457     Delta-E=       -0.000000000002 Rises=F Damp=F
 DIIS: error= 7.52D-09 at cycle  15 NSaved=  15.
 NSaved=15 IEnMin=15 EnMin= -324.023893519457     IErMin=15 ErrMin= 7.52D-09
 ErrMax= 7.52D-09 EMaxC= 1.00D-01 BMatC= 1.29D-14 BMatP= 8.57D-14
 IDIUse=1 WtCom= 1.00D+00 WtEn= 0.00D+00
 Coeff-Com: -0.405D-06 0.683D-06 0.461D-05 0.725D-05-0.234D-04-0.107D-03
 Coeff-Com:  0.358D-03-0.391D-05-0.107D-02 0.693D-03 0.793D-02 0.163D-01
 Coeff-Com: -0.175D+00 0.183D+00 0.968D+00
 Coeff:     -0.405D-06 0.683D-06 0.461D-05 0.725D-05-0.234D-04-0.107D-03
 Coeff:      0.358D-03-0.391D-05-0.107D-02 0.693D-03 0.793D-02 0.163D-01
 Coeff:     -0.175D+00 0.183D+00 0.968D+00
 Gap=     0.368 Goal=   None    Shift=    0.000
 RMSDP=8.03D-09 MaxDP=5.93D-07 DE=-2.27D-12 OVMax= 6.10D-08

 SCF Done:  E(RHF) =  -324.023893519     A.U. after   15 cycles
             Convg  =    0.8032D-08             -V/T =  2.0013
 KE= 3.235975235876D+02 PE=-1.411790762062D+03 EE= 4.301323292152D+02
 Leave Link  502 at Wed Dec 22 20:27:55 2021, MaxMem=  498073600 cpu:     122.5
 (Enter /apps/software//g09/l801.exe)
 ExpMin= 3.60D-02 ExpMax= 6.29D+03 ExpMxC= 9.49D+02 IAcc=3 IRadAn=         5 AccDes= 0.00D+00
 HarFok:  IExCor=  205 AccDes= 0.00D+00 IRadAn=         5 IDoV=-2
 ScaDFX=  1.000000  1.000000  1.000000  1.000000
 Largest valence mixing into a core orbital is  1.43D-04
 Largest core mixing into a valence orbital is  4.60D-05
 Range of M.O.s used for correlation:     9   232
 NBasis=   232 NAE=    28 NBE=    28 NFC=     8 NFV=     0
 NROrb=    224 NOA=    20 NOB=    20 NVA=   204 NVB=   204

 **** Warning!!: The largest alpha MO coefficient is  0.20797631D+03

 Leave Link  801 at Wed Dec 22 20:27:55 2021, MaxMem=  498073600 cpu:       1.5
 (Enter /apps/software//g09/l906.exe)
 Frozen-core derivative calculation, NFC=   8 NFV=   0.
 FulOut=F Deriv=T AODrv=F NAtomX=    16
   MMem=          72  MDisk=          20 MDiskD=          20
  W3Min=     1559040 MinDsk=     2159240 NBas6D=         240
 NBas2D=       29256    NTT=       28920    LW2=     2040000
    MDV=   497391414 MDiskM=       28668 NBas2p=       28304
 Fully direct method using O(ONN) memory.
 IMap=   1   2   3   4   5   6   7   8   9  10  11  12  13  14  15  16  17  18  19  20
 IMap=  21  22  23  24  25  26  27  28
 JobTyp=1 Pass  1:  I=   9 to  18 NPSUse=  6 ParTrn=T ParDer=T DoDerP=T.
 JobTyp=1 Pass  2:  I=  19 to  28 NPSUse=  6 ParTrn=T ParDer=T DoDerP=T.
 Spin components of T(2) and E(2):
     alpha-alpha T2 =       0.5496413427D-01 E2=     -0.1457446335D+00
     alpha-beta  T2 =       0.2961331689D+00 E2=     -0.8333246738D+00
     beta-beta   T2 =       0.5496413427D-01 E2=     -0.1457446335D+00
 The integrals were generated   2 times.
 ANorm=    0.1185774615D+01
 E2 =    -0.1124813941D+01 EUMP2 =    -0.32514870746034D+03
 Leave Link  906 at Wed Dec 22 20:28:55 2021, MaxMem=  498073600 cpu:     356.0
 (Enter /apps/software//g09/l1002.exe)
 Minotr:  Closed shell wavefunction.
          Computing MP2/KS-MP2 derivatives.
          Using Z-Vector for PSCF gradient.
          Skipping F1 and S1 gradient terms here.
          Frozen-core window.
          Direct CPHF calculation.
          Differentiating once with respect to electric field.
                with respect to dipole field.
          Electric field/nuclear overlap derivatives assumed to be zero.
          Using symmetry in CPHF.
          Requested convergence is 1.0D-10 RMS, and 1.0D-09 maximum.
          NewPWx=F KeepS1=T KeepF1=T KeepIn=T MapXYZ=F SortEE=F KeepMc=T.
          MDV=     498073468 using IRadAn=       0.
          Keep R1 ints in memory in canonical form, NReq=419019441.
 Symmetry not used in FoFDir.
 MinBra= 0 MaxBra= 2 Meth= 1.
 IRaf=       0 NMat=   1 IRICut=       1 DoRegI=T DoRafI=F ISym2E= 0 JSym2E=0.
          Solving linear equations separately, MaxMat=       0.
          There are     1 degrees of freedom in the 1st order CPHF.  IDoFFX=0.
 LinEq1:  Iter=  0 NonCon=     1 RMS=3.73D-03 Max=1.05D-01
 AX will form     1 AO Fock derivatives at one time.
 LinEq1:  Iter=  1 NonCon=     1 RMS=9.61D-04 Max=2.33D-02
 LinEq1:  Iter=  2 NonCon=     1 RMS=4.33D-04 Max=1.49D-02
 LinEq1:  Iter=  3 NonCon=     1 RMS=1.32D-04 Max=4.13D-03
 LinEq1:  Iter=  4 NonCon=     1 RMS=4.87D-05 Max=7.64D-04
 LinEq1:  Iter=  5 NonCon=     1 RMS=2.00D-05 Max=7.16D-04
 LinEq1:  Iter=  6 NonCon=     1 RMS=4.90D-06 Max=7.45D-05
 LinEq1:  Iter=  7 NonCon=     1 RMS=1.92D-06 Max=6.02D-05
 LinEq1:  Iter=  8 NonCon=     1 RMS=5.68D-07 Max=9.07D-06
 LinEq1:  Iter=  9 NonCon=     1 RMS=2.03D-07 Max=5.63D-06
 LinEq1:  Iter= 10 NonCon=     1 RMS=6.67D-08 Max=1.88D-06
 LinEq1:  Iter= 11 NonCon=     1 RMS=1.69D-08 Max=2.09D-07
 LinEq1:  Iter= 12 NonCon=     1 RMS=4.98D-09 Max=8.50D-08
 LinEq1:  Iter= 13 NonCon=     1 RMS=1.16D-09 Max=1.35D-08
 LinEq1:  Iter= 14 NonCon=     1 RMS=1.56D-10 Max=2.14D-09
 LinEq1:  Iter= 15 NonCon=     0 RMS=2.13D-11 Max=3.46D-10
 Linear equations converged to 1.000D-10 1.000D-09 after    15 iterations.
 End of Minotr Frequency-dependent properties file   721 does not exist.
 End of Minotr Frequency-dependent properties file   722 does not exist.
 Leave Link 1002 at Wed Dec 22 20:29:28 2021, MaxMem=  498073600 cpu:     200.5
 (Enter /apps/software//g09/l601.exe)
 Copying SCF densities to generalized density rwf, IOpCl= 0 IROHF=0.

 **********************************************************************

            Population analysis using the MP2 density.

 **********************************************************************

 Orbital symmetries:
       Occupied  (A') (A') (A') (A') (A') (A') (A') (A') (A') (A')
                 (A') (A') (A') (A') (A') (A') (A') (A') (A') (A')
                 (A') (A') (A") (A') (A') (A") (A") (A")
       Virtual   (A") (A") (A') (A') (A') (A') (A') (A') (A') (A")
                 (A') (A") (A") (A') (A') (A') (A') (A') (A") (A")
                 (A') (A') (A") (A") (A') (A') (A') (A') (A") (A')
                 (A') (A') (A') (A') (A') (A") (A") (A') (A') (A')
                 (A') (A') (A') (A') (A') (A') (A') (A') (A') (A')
                 (A') (A') (A') (A') (A') (A') (A') (A') (A') (A')
                 (A") (A') (A') (A') (A') (A') (A") (A") (A') (A')
                 (A") (A") (A') (A") (A") (A') (A') (A') (A') (A')
                 (A') (A') (A') (A') (A") (A') (A') (A') (A') (A')
                 (A') (A') (A') (A') (A") (A') (A') (A") (A") (A")
                 (A') (A") (A') (A") (A") (A") (A') (A') (A') (A')
                 (A') (A') (A') (A") (A") (A') (A') (A") (A") (A')
                 (A') (A") (A') (A') (A") (A') (A") (A') (A') (A")
                 (A') (A") (A') (A') (A') (A') (A") (A') (A') (A")
                 (A') (A") (A') (A') (A") (A") (A') (A') (A') (A')
                 (A") (A") (A') (A') (A') (A') (A') (A') (A') (A")
                 (A') (A') (A') (A') (A') (A') (A") (A") (A') (A")
                 (A") (A') (A') (A") (A") (A') (A') (A') (A') (A')
                 (A') (A') (A') (A') (A') (A') (A') (A") (A') (A')
                 (A') (A') (A') (A') (A') (A') (A') (A') (A') (A')
                 (A') (A') (A') (A')
 The electronic state is 1-A'.
 Alpha  occ. eigenvalues --  -15.77453 -11.52113 -11.45076 -11.45074 -11.43850
 Alpha  occ. eigenvalues --  -11.43849 -11.43546 -11.43408  -1.44640  -1.32002
 Alpha  occ. eigenvalues --   -1.24999  -1.22040  -1.09224  -1.08264  -0.95125
 Alpha  occ. eigenvalues --   -0.93528  -0.90123  -0.84924  -0.83694  -0.80767
 Alpha  occ. eigenvalues --   -0.77034  -0.73570  -0.72930  -0.70404  -0.68316
 Alpha  occ. eigenvalues --   -0.63945  -0.56340  -0.50189
 Alpha virt. eigenvalues --   -0.13401  -0.12021  -0.07676  -0.06165  -0.06133
 Alpha virt. eigenvalues --   -0.03958  -0.03936  -0.01710  -0.01232  -0.00869
 Alpha virt. eigenvalues --   -0.00740   0.01784   0.01871   0.02326   0.03948
 Alpha virt. eigenvalues --    0.04897   0.05247   0.05833   0.05996   0.06238
 Alpha virt. eigenvalues --    0.06886   0.07012   0.07336   0.07360   0.07478
 Alpha virt. eigenvalues --    0.07738   0.08882   0.11223   0.11775   0.11851
 Alpha virt. eigenvalues --    0.12182   0.12352   0.12505   0.15375   0.15681
 Alpha virt. eigenvalues --    0.16564   0.16973   0.17060   0.17305   0.17488
 Alpha virt. eigenvalues --    0.18970   0.19958   0.22967   0.22987   0.23486
 Alpha virt. eigenvalues --    0.23553   0.25569   0.25680   0.27238   0.27601
 Alpha virt. eigenvalues --    0.29684   0.30562   0.31554   0.33705   0.36044
 Alpha virt. eigenvalues --    0.40305   0.40389   0.42695   0.46684   0.48798
 Alpha virt. eigenvalues --    0.51579   0.55767   0.56350   0.56569   0.57653
 Alpha virt. eigenvalues --    0.57986   0.58088   0.58413   0.61803   0.62680
 Alpha virt. eigenvalues --    0.63270   0.63437   0.67978   0.69960   0.70323
 Alpha virt. eigenvalues --    0.71798   0.74171   0.76893   0.77172   0.79609
 Alpha virt. eigenvalues --    0.81150   0.82202   0.84208   0.84215   0.87076
 Alpha virt. eigenvalues --    0.88439   0.89328   0.89526   0.90505   0.92572
 Alpha virt. eigenvalues --    0.93121   0.95187   0.96601   0.99080   1.01307
 Alpha virt. eigenvalues --    1.03478   1.04624   1.06668   1.08967   1.09065
 Alpha virt. eigenvalues --    1.11012   1.12196   1.16426   1.20588   1.23940
 Alpha virt. eigenvalues --    1.25715   1.30225   1.37239   1.51018   1.52421
 Alpha virt. eigenvalues --    1.54201   1.55869   1.60144   1.61847   1.62238
 Alpha virt. eigenvalues --    1.62813   1.67782   1.69486   1.69813   1.72032
 Alpha virt. eigenvalues --    1.79389   1.79629   1.80480   1.81161   1.83907
 Alpha virt. eigenvalues --    1.84617   1.84660   1.87472   1.95076   1.96010
 Alpha virt. eigenvalues --    2.03398   2.03524   2.03630   2.06564   2.06659
 Alpha virt. eigenvalues --    2.08095   2.10997   2.14169   2.14743   2.16343
 Alpha virt. eigenvalues --    2.18469   2.22336   2.28082   2.33856   2.34982
 Alpha virt. eigenvalues --    2.48091   2.53961   2.57681   2.59930   2.60009
 Alpha virt. eigenvalues --    2.64467   2.67004   2.71301   2.71884   2.77684
 Alpha virt. eigenvalues --    2.79742   2.80343   2.80892   2.81187   2.84539
 Alpha virt. eigenvalues --    2.85450   2.85690   2.87007   2.88215   2.88808
 Alpha virt. eigenvalues --    2.90975   3.00177   3.01393   3.06631   3.07263
 Alpha virt. eigenvalues --    3.08027   3.08147   3.12511   3.18312   3.19567
 Alpha virt. eigenvalues --    3.21970   3.43315   3.47466   3.50025   3.52795
 Alpha virt. eigenvalues --    3.59115   3.60919   3.67985   3.69310   3.74207
 Alpha virt. eigenvalues --    3.78199   4.07323   4.15695   4.18467   4.20658
 Alpha virt. eigenvalues --    4.24403   4.44902   4.47116   5.07552   5.11263
 Alpha virt. eigenvalues --    5.34897  24.55316  24.83408  24.84653  24.91741
 Alpha virt. eigenvalues --   25.08115  25.15035  25.19353  36.90381
          Condensed to atoms (all electrons):
              1          2          3          4          5          6
     1  C   15.693802  -7.594037  -7.905174   5.782857  -5.929089  -2.119843
     2  C   -7.594037  15.404835   5.781562  -2.791390   2.512386   3.805432
     3  C   -7.905174   5.781562  15.693291  -7.594676   7.917694  -2.118526
     4  C    5.782857  -2.791390  -7.594676  15.409389 -10.969683   3.804067
     5  C   -5.929089   2.512386   7.917694 -10.969683  26.882351  -7.692158
     6  C   -2.119843   3.805432  -2.118526   3.804067  -7.692158  20.040322
     7  C    7.917687 -10.965887  -5.928090   2.512619  -7.912626  -7.696701
     8  H   -0.147217   0.044655   0.312711  -0.417556   1.339664  -0.652709
     9  H    0.312699  -0.417290  -0.147163   0.044657  -0.247934  -0.652940
    10  H   -0.536242   0.898842   0.261994  -0.117468   0.137371   0.295146
    11  H    0.871271  -0.444886  -0.467234   0.224636  -0.144607  -0.048433
    12  H   -0.467243   0.224603   0.871255  -0.444939   0.293775  -0.048401
    13  H    0.261996  -0.117444  -0.536211   0.898925  -0.645304   0.295067
    14  N    0.055490   0.035150   0.055535   0.035207   0.150806  -0.857091
    15  H    0.017218  -0.021703  -0.025122   0.055644  -0.138325   0.003056
    16  H   -0.025117   0.055607   0.017212  -0.021705   0.093124   0.003087
              7          8          9         10         11         12
     1  C    7.917687  -0.147217   0.312699  -0.536242   0.871271  -0.467243
     2  C  -10.965887   0.044655  -0.417290   0.898842  -0.444886   0.224603
     3  C   -5.928090   0.312711  -0.147163   0.261994  -0.467234   0.871255
     4  C    2.512619  -0.417556   0.044657  -0.117468   0.224636  -0.444939
     5  C   -7.912626   1.339664  -0.247934   0.137371  -0.144607   0.293775
     6  C   -7.696701  -0.652709  -0.652940   0.295146  -0.048433  -0.048401
     7  C   26.882354  -0.247977   1.339553  -0.645251   0.293734  -0.144568
     8  H   -0.247977   0.571206  -0.004105   0.003020  -0.003239   0.009800
     9  H    1.339553  -0.004105   0.571154  -0.046190   0.009798  -0.003238
    10  H   -0.645251   0.003020  -0.046190   0.534154  -0.034978   0.008906
    11  H    0.293734  -0.003239   0.009798  -0.034978   0.514401  -0.032256
    12  H   -0.144568   0.009800  -0.003238   0.008906  -0.032256   0.514402
    13  H    0.137366  -0.046200   0.003020  -0.003593   0.008906  -0.034977
    14  N    0.150226   0.002637   0.002635  -0.009066   0.000559   0.000559
    15  H    0.093136  -0.007650   0.004286  -0.000831   0.000268  -0.000490
    16  H   -0.138312   0.004287  -0.007647   0.003073  -0.000490   0.000268
             13         14         15         16
     1  C    0.261996   0.055490   0.017218  -0.025117
     2  C   -0.117444   0.035150  -0.021703   0.055607
     3  C   -0.536211   0.055535  -0.025122   0.017212
     4  C    0.898925   0.035207   0.055644  -0.021705
     5  C   -0.645304   0.150806  -0.138325   0.093124
     6  C    0.295067  -0.857091   0.003056   0.003087
     7  C    0.137366   0.150226   0.093136  -0.138312
     8  H   -0.046200   0.002637  -0.007650   0.004287
     9  H    0.003020   0.002635   0.004286  -0.007647
    10  H   -0.003593  -0.009066  -0.000831   0.003073
    11  H    0.008906   0.000559   0.000268  -0.000490
    12  H   -0.034977   0.000559  -0.000490   0.000268
    13  H    0.534151  -0.009069   0.003074  -0.000831
    14  N   -0.009069   6.963599   0.352334   0.352337
    15  H    0.003074   0.352334   0.353709  -0.013783
    16  H   -0.000831   0.352337  -0.013783   0.353715
 Mulliken atomic charges:
              1
     1  C   -0.189058
     2  C   -0.410435
     3  C   -0.189057
     4  C   -0.410583
     5  C    0.352557
     6  C   -0.359374
     7  C    0.352736
     8  H    0.238673
     9  H    0.238704
    10  H    0.251113
    11  H    0.252550
    12  H    0.252544
    13  H    0.251123
    14  N   -0.281847
    15  H    0.325178
    16  H    0.325176
 Sum of Mulliken atomic charges =   1.00000
 Mulliken charges with hydrogens summed into heavy atoms:
              1
     1  C    0.063491
     2  C   -0.159322
     3  C    0.063488
     4  C   -0.159460
     5  C    0.591229
     6  C   -0.359374
     7  C    0.591440
    14  N    0.368507
 Sum of Mulliken charges with hydrogens summed into heavy atoms =   1.00000
 Electronic spatial extent (au):  <R**2>=            896.0422
 Charge=              1.0000 electrons
 Dipole moment (field-independent basis, Debye):
    X=             -0.0001    Y=              1.9799    Z=              0.0000  Tot=              1.9799
 Quadrupole moment (field-independent basis, Debye-Ang):
   XX=            -29.8745   YY=            -18.0638   ZZ=            -50.0427
   XY=             -0.0011   XZ=              0.0000   YZ=              0.0000
 Traceless Quadrupole moment (field-independent basis, Debye-Ang):
   XX=              2.7858   YY=             14.5965   ZZ=            -17.3824
   XY=             -0.0011   XZ=              0.0000   YZ=              0.0000
 Octapole moment (field-independent basis, Debye-Ang**2):
  XXX=              0.0000  YYY=             34.8171  ZZZ=              0.0000  XYY=             -0.0032
  XXY=              3.0071  XXZ=              0.0000  XZZ=             -0.0001  YZZ=              1.8534
  YYZ=              0.0000  XYZ=              0.0000
 Hexadecapole moment (field-independent basis, Debye-Ang**3):
 XXXX=           -337.9906 YYYY=           -457.0968 ZZZZ=            -55.0409 XXXY=              0.0048
 XXXZ=              0.0000 YYYX=             -0.0008 YYYZ=              0.0000 ZZZX=              0.0000
 ZZZY=              0.0000 XXYY=           -135.6210 XXZZ=            -86.0736 YYZZ=           -142.6232
 XXYZ=              0.0000 YYXZ=              0.0000 ZZXY=              0.0041
 N-N= 3.340370157392D+02 E-N=-1.412987735780D+03  KE= 3.249821914395D+02
 Symmetry A'   KE= 3.153332743634D+02
 Symmetry A"   KE= 9.648917076111D+00
 No NMR shielding tensors so no spin-rotation constants.
 Leave Link  601 at Wed Dec 22 20:29:29 2021, MaxMem=  498073600 cpu:       2.0
 (Enter /apps/software//g09/l9999.exe)
 1\1\GINC-DLT01\SP\RMP2-FC\6-311++G(d,p)\C7H8N1(1+)\ITAMAR\22-Dec-2021\
 0\\#P MP2/6-311++G** DENSITY=MP2\\14-H\\1,1\C,0,0.686049,-1.911788,0.\
 C,0,1.552632,-0.790742,0.\C,0,-0.685871,-1.911851,0.\C,0,-1.552553,-0.
 790867,0.\C,0,-1.266904,0.549956,0.\C,0,0.,1.206614,0.\C,0,1.266909,0.
 550104,0.\H,0,-2.126866,1.213671,0.\H,0,2.126886,1.213799,0.\H,0,2.611
 223,-1.031326,0.\H,0,1.174737,-2.880184,0.\H,0,-1.174461,-2.880297,0.\
 H,0,-2.611128,-1.031515,0.\N,0,-0.000206,2.547614,0.\H,0,-0.859586,3.0
 76913,0.\H,0,0.859064,3.077078,0.\\Version=EM64L-G09RevA.02\State=1-A'
 \HF=-324.0238935\MP2=-325.1487075\RMSD=8.032e-09\Dipole=-0.0000367,0.7
 789361,0.\Quadrupole=2.071189,10.8521677,-12.9233567,-0.0008539,0.,0.\
 PG=CS [SG(C7H8N1)]\\@


 Human beings, who are almost unique in having the
 ability to learn from the experience of others, are
 also remarkable for their apparent disinclination to do so.
                               -- Douglas Adams,
                                Last Chance to See
 Job cpu time:  0 days  0 hours 11 minutes 30.9 seconds.
 File lengths (MBytes):  RWF=     25 Int=      0 D2E=      0 Chk=      5 Scr=      1
 Normal termination of Gaussian 09 at Wed Dec 22 20:29:29 2021.
