Clamp-10                                                                
SP        RMP2-FC                                                     6-311++G(d,p)       
Number of atoms                            I               12
Info1-9                                    I   N=           9
          23          21           0           0           0         110
           1           2           1
Charge                                     I                0
Multiplicity                               I                1
Number of electrons                        I               42
Number of alpha electrons                  I               21
Number of beta electrons                   I               21
Number of basis functions                  I              174
Number of independent functions            I              174
Number of point charges in /Mol/           I                0
Number of translation vectors              I                0
Atomic numbers                             I   N=          12
           6           6           6           6           6           6
           1           1           1           1           1           1
Nuclear charges                            R   N=          12
  6.00000000E+00  6.00000000E+00  6.00000000E+00  6.00000000E+00  6.00000000E+00
  6.00000000E+00  1.00000000E+00  1.00000000E+00  1.00000000E+00  1.00000000E+00
  1.00000000E+00  1.00000000E+00
Current cartesian coordinates              R   N=          36
 -9.86076132E-32  2.64094707E+00  1.81843846E-02  0.00000000E+00  1.33618566E+00
  2.27795669E+00 -1.63635550E-16 -1.33618566E+00  2.27795669E+00 -3.23422738E-16
 -2.64094707E+00  1.81843846E-02  0.00000000E+00 -1.30469527E+00 -2.29612731E+00
  1.59779088E-16  1.30469527E+00 -2.29612731E+00  0.00000000E+00  4.65899506E+00
 -3.37705848E-01  0.00000000E+00  2.03704351E+00  4.20353849E+00 -2.49465882E-16
 -2.03704351E+00  4.20353849E+00 -5.70562339E-16 -4.65899506E+00 -3.37705848E-01
  0.00000000E+00 -2.62182871E+00 -3.86591525E+00  3.21081414E-16  2.62182871E+00
 -3.86591525E+00
Force Field                                I                0
Int Atom Types                             I   N=          12
           0           0           0           0           0           0
           0           0           0           0           0           0
MM charges                                 R   N=          12
  0.00000000E+00  0.00000000E+00  0.00000000E+00  0.00000000E+00  0.00000000E+00
  0.00000000E+00  0.00000000E+00  0.00000000E+00  0.00000000E+00  0.00000000E+00
  0.00000000E+00  0.00000000E+00
Integer atomic weights                     I   N=          12
          12          12          12          12          12          12
           1           1           1           1           1           1
Real atomic weights                        R   N=          12
  1.20000000E+01  1.20000000E+01  1.20000000E+01  1.20000000E+01  1.20000000E+01
  1.20000000E+01  1.00782504E+00  1.00782504E+00  1.00782504E+00  1.00782504E+00
  1.00782504E+00  1.00782504E+00
Atom fragment info                         I   N=          12
           0           0           0           0           0           0
           0           0           0           0           0           0
Atom residue num                           I   N=          12
           0           0           0           0           0           0
           0           0           0           0           0           0
Nuclear spins                              I   N=          12
           0           0           0           0           0           0
           1           1           1           1           1           1
Nuclear ZEff                               R   N=          12
 -3.60000000E+00 -3.60000000E+00 -3.60000000E+00 -3.60000000E+00 -3.60000000E+00
 -3.60000000E+00 -1.00000000E+00 -1.00000000E+00 -1.00000000E+00 -1.00000000E+00
 -1.00000000E+00 -1.00000000E+00
Nuclear QMom                               R   N=          12
  0.00000000E+00  0.00000000E+00  0.00000000E+00  0.00000000E+00  0.00000000E+00
  0.00000000E+00  0.00000000E+00  0.00000000E+00  0.00000000E+00  0.00000000E+00
  0.00000000E+00  0.00000000E+00
Nuclear GFac                               R   N=          12
  0.00000000E+00  0.00000000E+00  0.00000000E+00  0.00000000E+00  0.00000000E+00
  0.00000000E+00  2.79284600E+00  2.79284600E+00  2.79284600E+00  2.79284600E+00
  2.79284600E+00  2.79284600E+00
MicOpt                                     I   N=          12
          -1          -1          -1          -1          -1          -1
          -1          -1          -1          -1          -1          -1
Number of contracted shells                I               66
Number of primitive shells                 I              120
Pure/Cartesian d shells                    I                0
Pure/Cartesian f shells                    I                0
Highest angular momentum                   I                2
Largest degree of contraction              I                6
Shell types                                I   N=          66
           0          -1          -1          -1          -1          -2
           0          -1          -1          -1          -1          -2
           0          -1          -1          -1          -1          -2
           0          -1          -1          -1          -1          -2
           0          -1          -1          -1          -1          -2
           0          -1          -1          -1          -1          -2
           0           0           0           0           1           0
           0           0           0           1           0           0
           0           0           1           0           0           0
           0           1           0           0           0           0
           1           0           0           0           0           1
Number of primitives per shell             I   N=          66
           6           3           1           1           1           1
           6           3           1           1           1           1
           6           3           1           1           1           1
           6           3           1           1           1           1
           6           3           1           1           1           1
           6           3           1           1           1           1
           3           1           1           1           1           3
           1           1           1           1           3           1
           1           1           1           3           1           1
           1           1           3           1           1           1
           1           3           1           1           1           1
Shell to atom map                          I   N=          66
           1           1           1           1           1           1
           2           2           2           2           2           2
           3           3           3           3           3           3
           4           4           4           4           4           4
           5           5           5           5           5           5
           6           6           6           6           6           6
           7           7           7           7           7           8
           8           8           8           8           9           9
           9           9           9          10          10          10
          10          10          11          11          11          11
          11          12          12          12          12          12
Primitive exponents                        R   N=         120
  4.56324000E+03  6.82024000E+02  1.54973000E+02  4.44553000E+01  1.30290000E+01
  1.82773000E+00  2.09642000E+01  4.80331000E+00  1.45933000E+00  4.83456000E-01
  1.45585000E-01  4.38000000E-02  6.26000000E-01  4.56324000E+03  6.82024000E+02
  1.54973000E+02  4.44553000E+01  1.30290000E+01  1.82773000E+00  2.09642000E+01
  4.80331000E+00  1.45933000E+00  4.83456000E-01  1.45585000E-01  4.38000000E-02
  6.26000000E-01  4.56324000E+03  6.82024000E+02  1.54973000E+02  4.44553000E+01
  1.30290000E+01  1.82773000E+00  2.09642000E+01  4.80331000E+00  1.45933000E+00
  4.83456000E-01  1.45585000E-01  4.38000000E-02  6.26000000E-01  4.56324000E+03
  6.82024000E+02  1.54973000E+02  4.44553000E+01  1.30290000E+01  1.82773000E+00
  2.09642000E+01  4.80331000E+00  1.45933000E+00  4.83456000E-01  1.45585000E-01
  4.38000000E-02  6.26000000E-01  4.56324000E+03  6.82024000E+02  1.54973000E+02
  4.44553000E+01  1.30290000E+01  1.82773000E+00  2.09642000E+01  4.80331000E+00
  1.45933000E+00  4.83456000E-01  1.45585000E-01  4.38000000E-02  6.26000000E-01
  4.56324000E+03  6.82024000E+02  1.54973000E+02  4.44553000E+01  1.30290000E+01
  1.82773000E+00  2.09642000E+01  4.80331000E+00  1.45933000E+00  4.83456000E-01
  1.45585000E-01  4.38000000E-02  6.26000000E-01  3.38650000E+01  5.09479000E+00
  1.15879000E+00  3.25840000E-01  1.02741000E-01  3.60000000E-02  7.50000000E-01
  3.38650000E+01  5.09479000E+00  1.15879000E+00  3.25840000E-01  1.02741000E-01
  3.60000000E-02  7.50000000E-01  3.38650000E+01  5.09479000E+00  1.15879000E+00
  3.25840000E-01  1.02741000E-01  3.60000000E-02  7.50000000E-01  3.38650000E+01
  5.09479000E+00  1.15879000E+00  3.25840000E-01  1.02741000E-01  3.60000000E-02
  7.50000000E-01  3.38650000E+01  5.09479000E+00  1.15879000E+00  3.25840000E-01
  1.02741000E-01  3.60000000E-02  7.50000000E-01  3.38650000E+01  5.09479000E+00
  1.15879000E+00  3.25840000E-01  1.02741000E-01  3.60000000E-02  7.50000000E-01
Contraction coefficients                   R   N=         120
  1.96665025E-03  1.52306019E-02  7.61269097E-02  2.60801033E-01  6.16462078E-01
  2.21006028E-01  1.14660081E-01  9.19999648E-01 -3.03068213E-03  1.00000000E+00
  1.00000000E+00  1.00000000E+00  1.00000000E+00  1.96665025E-03  1.52306019E-02
  7.61269097E-02  2.60801033E-01  6.16462078E-01  2.21006028E-01  1.14660081E-01
  9.19999648E-01 -3.03068213E-03  1.00000000E+00  1.00000000E+00  1.00000000E+00
  1.00000000E+00  1.96665025E-03  1.52306019E-02  7.61269097E-02  2.60801033E-01
  6.16462078E-01  2.21006028E-01  1.14660081E-01  9.19999648E-01 -3.03068213E-03
  1.00000000E+00  1.00000000E+00  1.00000000E+00  1.00000000E+00  1.96665025E-03
  1.52306019E-02  7.61269097E-02  2.60801033E-01  6.16462078E-01  2.21006028E-01
  1.14660081E-01  9.19999648E-01 -3.03068213E-03  1.00000000E+00  1.00000000E+00
  1.00000000E+00  1.00000000E+00  1.96665025E-03  1.52306019E-02  7.61269097E-02
  2.60801033E-01  6.16462078E-01  2.21006028E-01  1.14660081E-01  9.19999648E-01
 -3.03068213E-03  1.00000000E+00  1.00000000E+00  1.00000000E+00  1.00000000E+00
  1.96665025E-03  1.52306019E-02  7.61269097E-02  2.60801033E-01  6.16462078E-01
  2.21006028E-01  1.14660081E-01  9.19999648E-01 -3.03068213E-03  1.00000000E+00
  1.00000000E+00  1.00000000E+00  1.00000000E+00  2.54938145E-02  1.90373109E-01
  8.52161486E-01  1.00000000E+00  1.00000000E+00  1.00000000E+00  1.00000000E+00
  2.54938145E-02  1.90373109E-01  8.52161486E-01  1.00000000E+00  1.00000000E+00
  1.00000000E+00  1.00000000E+00  2.54938145E-02  1.90373109E-01  8.52161486E-01
  1.00000000E+00  1.00000000E+00  1.00000000E+00  1.00000000E+00  2.54938145E-02
  1.90373109E-01  8.52161486E-01  1.00000000E+00  1.00000000E+00  1.00000000E+00
  1.00000000E+00  2.54938145E-02  1.90373109E-01  8.52161486E-01  1.00000000E+00
  1.00000000E+00  1.00000000E+00  1.00000000E+00  2.54938145E-02  1.90373109E-01
  8.52161486E-01  1.00000000E+00  1.00000000E+00  1.00000000E+00  1.00000000E+00
P(S=P) Contraction coefficients            R   N=         120
  0.00000000E+00  0.00000000E+00  0.00000000E+00  0.00000000E+00  0.00000000E+00
  0.00000000E+00  4.02486927E-02  2.37593957E-01  8.15853851E-01  1.00000000E+00
  1.00000000E+00  1.00000000E+00  0.00000000E+00  0.00000000E+00  0.00000000E+00
  0.00000000E+00  0.00000000E+00  0.00000000E+00  0.00000000E+00  4.02486927E-02
  2.37593957E-01  8.15853851E-01  1.00000000E+00  1.00000000E+00  1.00000000E+00
  0.00000000E+00  0.00000000E+00  0.00000000E+00  0.00000000E+00  0.00000000E+00
  0.00000000E+00  0.00000000E+00  4.02486927E-02  2.37593957E-01  8.15853851E-01
  1.00000000E+00  1.00000000E+00  1.00000000E+00  0.00000000E+00  0.00000000E+00
  0.00000000E+00  0.00000000E+00  0.00000000E+00  0.00000000E+00  0.00000000E+00
  4.02486927E-02  2.37593957E-01  8.15853851E-01  1.00000000E+00  1.00000000E+00
  1.00000000E+00  0.00000000E+00  0.00000000E+00  0.00000000E+00  0.00000000E+00
  0.00000000E+00  0.00000000E+00  0.00000000E+00  4.02486927E-02  2.37593957E-01
  8.15853851E-01  1.00000000E+00  1.00000000E+00  1.00000000E+00  0.00000000E+00
  0.00000000E+00  0.00000000E+00  0.00000000E+00  0.00000000E+00  0.00000000E+00
  0.00000000E+00  4.02486927E-02  2.37593957E-01  8.15853851E-01  1.00000000E+00
  1.00000000E+00  1.00000000E+00  0.00000000E+00  0.00000000E+00  0.00000000E+00
  0.00000000E+00  0.00000000E+00  0.00000000E+00  0.00000000E+00  0.00000000E+00
  0.00000000E+00  0.00000000E+00  0.00000000E+00  0.00000000E+00  0.00000000E+00
  0.00000000E+00  0.00000000E+00  0.00000000E+00  0.00000000E+00  0.00000000E+00
  0.00000000E+00  0.00000000E+00  0.00000000E+00  0.00000000E+00  0.00000000E+00
  0.00000000E+00  0.00000000E+00  0.00000000E+00  0.00000000E+00  0.00000000E+00
  0.00000000E+00  0.00000000E+00  0.00000000E+00  0.00000000E+00  0.00000000E+00
  0.00000000E+00  0.00000000E+00  0.00000000E+00  0.00000000E+00  0.00000000E+00
  0.00000000E+00  0.00000000E+00  0.00000000E+00  0.00000000E+00  0.00000000E+00
Coordinates of each shell                  R   N=         198
  0.00000000E+00  2.64094707E+00  1.81843846E-02  0.00000000E+00  2.64094707E+00
  1.81843846E-02  0.00000000E+00  2.64094707E+00  1.81843846E-02  0.00000000E+00
  2.64094707E+00  1.81843846E-02  0.00000000E+00  2.64094707E+00  1.81843846E-02
  0.00000000E+00  2.64094707E+00  1.81843846E-02  0.00000000E+00  1.33618566E+00
  2.27795669E+00  0.00000000E+00  1.33618566E+00  2.27795669E+00  0.00000000E+00
  1.33618566E+00  2.27795669E+00  0.00000000E+00  1.33618566E+00  2.27795669E+00
  0.00000000E+00  1.33618566E+00  2.27795669E+00  0.00000000E+00  1.33618566E+00
  2.27795669E+00 -1.63635550E-16 -1.33618566E+00  2.27795669E+00 -1.63635550E-16
 -1.33618566E+00  2.27795669E+00 -1.63635550E-16 -1.33618566E+00  2.27795669E+00
 -1.63635550E-16 -1.33618566E+00  2.27795669E+00 -1.63635550E-16 -1.33618566E+00
  2.27795669E+00 -1.63635550E-16 -1.33618566E+00  2.27795669E+00 -3.23422738E-16
 -2.64094707E+00  1.81843846E-02 -3.23422738E-16 -2.64094707E+00  1.81843846E-02
 -3.23422738E-16 -2.64094707E+00  1.81843846E-02 -3.23422738E-16 -2.64094707E+00
  1.81843846E-02 -3.23422738E-16 -2.64094707E+00  1.81843846E-02 -3.23422738E-16
 -2.64094707E+00  1.81843846E-02  0.00000000E+00 -1.30469527E+00 -2.29612731E+00
  0.00000000E+00 -1.30469527E+00 -2.29612731E+00  0.00000000E+00 -1.30469527E+00
 -2.29612731E+00  0.00000000E+00 -1.30469527E+00 -2.29612731E+00  0.00000000E+00
 -1.30469527E+00 -2.29612731E+00  0.00000000E+00 -1.30469527E+00 -2.29612731E+00
  1.59779088E-16  1.30469527E+00 -2.29612731E+00  1.59779088E-16  1.30469527E+00
 -2.29612731E+00  1.59779088E-16  1.30469527E+00 -2.29612731E+00  1.59779088E-16
  1.30469527E+00 -2.29612731E+00  1.59779088E-16  1.30469527E+00 -2.29612731E+00
  1.59779088E-16  1.30469527E+00 -2.29612731E+00  0.00000000E+00  4.65899506E+00
 -3.37705848E-01  0.00000000E+00  4.65899506E+00 -3.37705848E-01  0.00000000E+00
  4.65899506E+00 -3.37705848E-01  0.00000000E+00  4.65899506E+00 -3.37705848E-01
  0.00000000E+00  4.65899506E+00 -3.37705848E-01  0.00000000E+00  2.03704351E+00
  4.20353849E+00  0.00000000E+00  2.03704351E+00  4.20353849E+00  0.00000000E+00
  2.03704351E+00  4.20353849E+00  0.00000000E+00  2.03704351E+00  4.20353849E+00
  0.00000000E+00  2.03704351E+00  4.20353849E+00 -2.49465882E-16 -2.03704351E+00
  4.20353849E+00 -2.49465882E-16 -2.03704351E+00  4.20353849E+00 -2.49465882E-16
 -2.03704351E+00  4.20353849E+00 -2.49465882E-16 -2.03704351E+00  4.20353849E+00
 -2.49465882E-16 -2.03704351E+00  4.20353849E+00 -5.70562339E-16 -4.65899506E+00
 -3.37705848E-01 -5.70562339E-16 -4.65899506E+00 -3.37705848E-01 -5.70562339E-16
 -4.65899506E+00 -3.37705848E-01 -5.70562339E-16 -4.65899506E+00 -3.37705848E-01
 -5.70562339E-16 -4.65899506E+00 -3.37705848E-01  0.00000000E+00 -2.62182871E+00
 -3.86591525E+00  0.00000000E+00 -2.62182871E+00 -3.86591525E+00  0.00000000E+00
 -2.62182871E+00 -3.86591525E+00  0.00000000E+00 -2.62182871E+00 -3.86591525E+00
  0.00000000E+00 -2.62182871E+00 -3.86591525E+00  3.21081414E-16  2.62182871E+00
 -3.86591525E+00  3.21081414E-16  2.62182871E+00 -3.86591525E+00  3.21081414E-16
  2.62182871E+00 -3.86591525E+00  3.21081414E-16  2.62182871E+00 -3.86591525E+00
  3.21081414E-16  2.62182871E+00 -3.86591525E+00
Constraint Structure                       R   N=          36
  0.00000000E+00  2.64094707E+00  1.81843846E-02  0.00000000E+00  1.33618566E+00
  2.27795669E+00 -1.63635550E-16 -1.33618566E+00  2.27795669E+00 -3.23422738E-16
 -2.64094707E+00  1.81843846E-02  0.00000000E+00 -1.30469527E+00 -2.29612731E+00
  1.59779088E-16  1.30469527E+00 -2.29612731E+00  0.00000000E+00  4.65899506E+00
 -3.37705848E-01  0.00000000E+00  2.03704351E+00  4.20353849E+00 -2.49465882E-16
 -2.03704351E+00  4.20353849E+00 -5.70562339E-16 -4.65899506E+00 -3.37705848E-01
  0.00000000E+00 -2.62182871E+00 -3.86591525E+00  3.21081414E-16  2.62182871E+00
 -3.86591525E+00
Num ILSW                                   I              100
ILSW                                       I   N=         100
           0           0           0           0           2           0
           0           0           0           0           0          -1
           0           0           0           0           0           0
           0           0           0           0           0           0
           1           0           0           0           0           0
           0           0      100000           0          -1           0
           0           0           0           0           0           0
           0           0           0           1           0           0
           0           0           1           0           0           0
           0           0           4          40           0           0
           0           0           0           0           0           0
           0           0           0           0           0           0
           0           0           0           0           0           0
           0           0           0           0           0           0
           0           0           0           0           0           0
           0           0           0           0           0           0
           0           0           0           0
Num RLSW                                   I               40
RLSW                                       R   N=          40
  1.00000000E+00  1.00000000E+00  1.00000000E+00  1.00000000E+00  1.00000000E+00
  0.00000000E+00  0.00000000E+00  1.00000000E+00  0.00000000E+00  0.00000000E+00
  0.00000000E+00  0.00000000E+00  1.00000000E+00  0.00000000E+00  0.00000000E+00
  0.00000000E+00  0.00000000E+00  1.00000000E+00  0.00000000E+00  0.00000000E+00
  0.00000000E+00  0.00000000E+00  1.00000000E+00  0.00000000E+00  0.00000000E+00
  0.00000000E+00  0.00000000E+00  1.00000000E+00  0.00000000E+00  0.00000000E+00
  0.00000000E+00  0.00000000E+00  0.00000000E+00  0.00000000E+00  0.00000000E+00
  0.00000000E+00  0.00000000E+00  0.00000000E+00  1.00000000E+00  1.00000000E+00
MxBond                                     I                3
NBond                                      I   N=          12
           3           3           3           3           3           3
           1           1           1           1           1           1
IBond                                      I   N=          36
           2           6           7           1           3           8
           2           4           9           3           5          10
           4           6          11           1           5          12
           1           0           0           2           0           0
           3           0           0           4           0           0
           5           0           0           6           0           0
RBond                                      R   N=          36
  1.50000000E+00  1.50000000E+00  1.00000000E+00  1.50000000E+00  1.50000000E+00
  1.00000000E+00  1.50000000E+00  1.50000000E+00  1.00000000E+00  1.50000000E+00
  1.50000000E+00  1.00000000E+00  1.50000000E+00  1.50000000E+00  1.00000000E+00
  1.50000000E+00  1.50000000E+00  1.00000000E+00  1.00000000E+00  0.00000000E+00
  0.00000000E+00  1.00000000E+00  0.00000000E+00  0.00000000E+00  1.00000000E+00
  0.00000000E+00  0.00000000E+00  1.00000000E+00  0.00000000E+00  0.00000000E+00
  1.00000000E+00  0.00000000E+00  0.00000000E+00  1.00000000E+00  0.00000000E+00
  0.00000000E+00
Virial Ratio                               R      2.001280853276266E+00
SCF Energy                                 R     -2.307330047897900E+02
MP2 Energy                                 R     -2.315638918748829E+02
Total Energy                               R     -2.315638918748829E+02
Post-SCF wavefunction norm                 R      1.144294485341915E+00
RMS Density                                R      4.636183171126261E-09
External E-field                           R   N=          35
  0.00000000E+00  0.00000000E+00  0.00000000E+00  0.00000000E+00  0.00000000E+00
  0.00000000E+00  0.00000000E+00  0.00000000E+00  0.00000000E+00  0.00000000E+00
  0.00000000E+00  0.00000000E+00  0.00000000E+00  0.00000000E+00  0.00000000E+00
  0.00000000E+00  0.00000000E+00  0.00000000E+00  0.00000000E+00  0.00000000E+00
  0.00000000E+00  0.00000000E+00  0.00000000E+00  0.00000000E+00  0.00000000E+00
  0.00000000E+00  0.00000000E+00  0.00000000E+00  0.00000000E+00  0.00000000E+00
  0.00000000E+00  0.00000000E+00  0.00000000E+00  0.00000000E+00  0.00000000E+00
IOpCl                                      I                0
IROHF                                      I                0
Alpha Orbital Energies                     R   N=         174
 -1.12408186E+01 -1.12402610E+01 -1.12402583E+01 -1.12390334E+01 -1.12390306E+01
 -1.12384410E+01 -1.15199010E+00 -1.01791148E+00 -1.01790765E+00 -8.27517360E-01
 -8.27515000E-01 -7.17993718E-01 -6.41446059E-01 -6.16092666E-01 -5.89793336E-01
 -5.89784427E-01 -5.01679508E-01 -4.90102816E-01 -4.90090925E-01 -3.37749922E-01
 -3.37747598E-01  4.20212810E-02  4.89117395E-02  4.89120867E-02  6.64579578E-02
  6.64582530E-02  8.83314775E-02  1.08031958E-01  1.08035883E-01  1.29212737E-01
  1.52625595E-01  1.52626179E-01  1.56893532E-01  1.62061341E-01  1.77166958E-01
  1.77168563E-01  1.85985175E-01  1.85985436E-01  1.91933993E-01  2.09258671E-01
  2.13015516E-01  2.13015967E-01  2.15678652E-01  2.15680818E-01  2.18062235E-01
  2.27596873E-01  2.27598250E-01  2.50368057E-01  2.50368733E-01  2.88329659E-01
  2.88330385E-01  3.01925763E-01  3.32471557E-01  3.34075396E-01  3.66886680E-01
  3.91506808E-01  3.91513974E-01  4.37001694E-01  4.37006327E-01  4.41061236E-01
  4.91201225E-01  4.91204604E-01  5.16181630E-01  5.16186965E-01  5.93799634E-01
  6.31582088E-01  7.04644144E-01  7.14831639E-01  7.23805883E-01  7.23806182E-01
  7.52646208E-01  7.52650432E-01  7.57493833E-01  7.57495380E-01  7.61474374E-01
  7.96046003E-01  8.18751652E-01  8.18753244E-01  8.85292317E-01  9.24559512E-01
  9.24559542E-01  9.53329036E-01  9.53329742E-01  9.71938867E-01  1.01140040E+00
  1.02043672E+00  1.02043883E+00  1.05812619E+00  1.05812684E+00  1.09253987E+00
  1.12464536E+00  1.12464551E+00  1.13703003E+00  1.16600484E+00  1.21586868E+00
  1.21587962E+00  1.24674956E+00  1.31916870E+00  1.31918340E+00  1.39618961E+00
  1.39619947E+00  1.52936169E+00  1.56606777E+00  1.66563252E+00  1.73619941E+00
  1.73623009E+00  1.77177857E+00  1.81482942E+00  1.82842816E+00  1.82843152E+00
  1.87012641E+00  1.87014749E+00  1.97836844E+00  1.97839164E+00  1.99271294E+00
  2.05382472E+00  2.05383320E+00  2.15812784E+00  2.15813202E+00  2.16933306E+00
  2.17092409E+00  2.21275088E+00  2.21277287E+00  2.22994827E+00  2.22995451E+00
  2.30213716E+00  2.36388710E+00  2.36389483E+00  2.40838792E+00  2.40838967E+00
  2.55252042E+00  2.67718951E+00  2.67720075E+00  2.74077552E+00  2.74609726E+00
  2.81361454E+00  2.81363805E+00  2.89628188E+00  2.91890015E+00  2.96853366E+00
  2.96853743E+00  2.99909405E+00  2.99909919E+00  3.05616469E+00  3.09214828E+00
  3.09215178E+00  3.12813936E+00  3.19031294E+00  3.19031657E+00  3.29457597E+00
  3.29457908E+00  3.33246370E+00  3.33246793E+00  3.33496485E+00  3.47672967E+00
  3.53619515E+00  3.74897257E+00  3.74897825E+00  3.88706277E+00  3.91780465E+00
  3.91781765E+00  4.05525071E+00  4.39837753E+00  4.39838632E+00  4.51400819E+00
  4.56416945E+00  4.56416984E+00  5.26370820E+00  2.47271866E+01  2.51092932E+01
  2.51092959E+01  2.52980703E+01  2.52980862E+01  2.53884786E+01
Alpha MO coefficients                      R   N=       30276
  2.30278897E-01  1.90666132E-01  0.00000000E+00 -3.23297345E-05  1.99204244E-05
  2.01911917E-03  0.00000000E+00 -1.68969798E-04 -9.69833078E-06 -3.70898134E-04
  0.00000000E+00  1.69278944E-05  1.27389887E-05 -1.25779371E-04  0.00000000E+00
 -2.05356137E-04  6.42066576E-05  1.13651031E-04  0.00000000E+00 -2.45856158E-05
 -7.54939681E-05  0.00000000E+00  2.30291424E-01  1.90676394E-01  0.00000000E+00
  6.77818664E-07 -3.79736367E-05  2.01982721E-03  0.00000000E+00 -9.33594728E-05
 -1.41450279E-04 -3.70851925E-04  0.00000000E+00  2.00318723E-05  7.36737617E-06
 -1.29586625E-04  0.00000000E+00 -5.02550999E-05 -2.08419930E-04  5.28949935E-05
  0.00000000E+00 -6.46571917E-05 -1.10382607E-04  0.00000000E+00  2.30291424E-01
  1.90676394E-01  0.00000000E+00 -6.77818664E-07 -3.79736367E-05  2.01982721E-03
  0.00000000E+00  9.33594728E-05 -1.41450279E-04 -3.70851925E-04  0.00000000E+00
 -2.00318723E-05  7.36737617E-06 -1.29586625E-04  0.00000000E+00  5.02550999E-05
 -2.08419930E-04  5.28949935E-05  0.00000000E+00  6.46571917E-05 -1.10382607E-04
  0.00000000E+00  2.30278897E-01  1.90666132E-01  0.00000000E+00  3.23297345E-05
  1.99204244E-05  2.01911917E-03  0.00000000E+00  1.68969798E-04 -9.69833078E-06
 -3.70898134E-04  0.00000000E+00 -1.69278944E-05  1.27389887E-05 -1.25779371E-04
  0.00000000E+00  2.05356137E-04  6.42066576E-05  1.13651031E-04  0.00000000E+00
  2.45856158E-05 -7.54939681E-05  0.00000000E+00  2.29162866E-01  1.89741823E-01
  0.00000000E+00  3.28070775E-05  1.85754640E-05  2.01070636E-03  0.00000000E+00
  7.55917279E-05  1.51432622E-04 -3.70170334E-04  0.00000000E+00  3.64781276E-06
 -2.11001219E-05 -1.22951565E-04  0.00000000E+00  1.52401471E-04  1.44838220E-04
  1.66186536E-05  0.00000000E+00 -4.03675178E-05 -1.30529171E-04  0.00000000E+00
  2.29162866E-01  1.89741823E-01  0.00000000E+00 -3.28070775E-05  1.85754640E-05
  2.01070636E-03  0.00000000E+00 -7.55917279E-05  1.51432622E-04 -3.70170334E-04
  0.00000000E+00 -3.64781276E-06 -2.11001219E-05 -1.22951565E-04  0.00000000E+00
 -1.52401471E-04  1.44838220E-04  1.66186536E-05  0.00000000E+00  4.03675178E-05
 -1.30529171E-04  0.00000000E+00  1.76591900E-04 -4.77993475E-05  2.63187338E-04
  1.07055671E-04  0.00000000E+00 -1.36130066E-05  2.84442114E-05  1.76646497E-04
 -4.76320061E-05  2.63668732E-04  1.07256721E-04  0.00000000E+00  1.76927864E-05
 -2.60518845E-05  1.76646497E-04 -4.76320061E-05  2.63668732E-04  1.07256721E-04
  0.00000000E+00 -1.76927864E-05 -2.60518845E-05  1.76591900E-04 -4.77993475E-05
  2.63187338E-04  1.07055671E-04  0.00000000E+00  1.36130066E-05  2.84442114E-05
  1.75809914E-04 -4.70039696E-05  2.61826397E-04  1.04848248E-04  0.00000000E+00
  3.13162425E-05 -2.16332561E-06  1.75809914E-04 -4.70039696E-05  2.61826397E-04
  1.04848248E-04  0.00000000E+00 -3.13162425E-05 -2.16332561E-06  3.24727251E-01
  2.68907680E-01  0.00000000E+00 -8.67664732E-06  3.70749955E-05  2.64862522E-03
  0.00000000E+00 -1.15174298E-04 -1.65453478E-05 -2.90207243E-04  0.00000000E+00
 -7.73786840E-06 -1.46571871E-06 -1.28135621E-03  0.00000000E+00 -1.14831867E-03
  3.73580095E-04  1.72006651E-04  0.00000000E+00 -6.77177253E-05 -1.34205517E-04
  0.00000000E+00  1.80316916E-01  1.49324608E-01  0.00000000E+00  1.51179220E-04
 -9.63766752E-05  1.44469795E-03  0.00000000E+00  1.00326630E-04 -5.01359241E-05
 -1.14596833E-04  0.00000000E+00 -1.49095444E-04  1.41271675E-04 -2.05640639E-03
  0.00000000E+00  7.18497057E-04 -8.99393597E-04  1.32245271E-04  0.00000000E+00
 -1.24852551E-04 -6.27767303E-05  0.00000000E+00 -1.80316916E-01 -1.49324608E-01
  0.00000000E+00  1.51179220E-04  9.63766752E-05 -1.44469795E-03  0.00000000E+00
  1.00326630E-04  5.01359241E-05  1.14596833E-04  0.00000000E+00 -1.49095444E-04
 -1.41271675E-04  2.05640639E-03  0.00000000E+00  7.18497057E-04  8.99393597E-04
 -1.32245271E-04  0.00000000E+00 -1.24852551E-04  6.27767303E-05  0.00000000E+00
 -3.24727251E-01 -2.68907680E-01  0.00000000E+00 -8.67664732E-06 -3.70749955E-05
 -2.64862522E-03  0.00000000E+00 -1.15174298E-04  1.65453478E-05  2.90207243E-04
  0.00000000E+00 -7.73786840E-06  1.46571871E-06  1.28135621E-03  0.00000000E+00
 -1.14831867E-03 -3.73580095E-04 -1.72006651E-04  0.00000000E+00 -6.77177253E-05
  1.34205517E-04  0.00000000E+00 -1.43730073E-01 -1.19019542E-01  0.00000000E+00
  1.22368137E-04 -7.20855351E-05 -1.19935369E-03  0.00000000E+00  5.07623317E-05
 -1.69833712E-04  1.71529356E-04  0.00000000E+00 -2.02786206E-04  4.95545606E-05
 -7.92669294E-04  0.00000000E+00  2.39474952E-04 -9.84240989E-04 -8.42042315E-05
  0.00000000E+00  4.69685262E-05  4.49850806E-05  0.00000000E+00  1.43730073E-01
  1.19019542E-01  0.00000000E+00  1.22368137E-04  7.20855351E-05  1.19935369E-03
  0.00000000E+00  5.07623317E-05  1.69833712E-04 -1.71529356E-04  0.00000000E+00