 Entering Gaussian System, Link 0=g09
 Initial command:
 /apps/software//g09/l1.exe /scratch/itamar/2996.cluster.abaxnet/Gau-32106.inp -scrdir=/scratch/itamar/2996.cluster.abaxnet/
 Entering Link 1 = /apps/software//g09/l1.exe PID=     32107.
  
 Copyright (c) 1988,1990,1992,1993,1995,1998,2003,2009, Gaussian, Inc.
                  All Rights Reserved.
  
 This is part of the Gaussian(R) 09 program.  It is based on
 the Gaussian(R) 03 system (copyright 2003, Gaussian, Inc.),
 the Gaussian(R) 98 system (copyright 1998, Gaussian, Inc.),
 the Gaussian(R) 94 system (copyright 1995, Gaussian, Inc.),
 the Gaussian 92(TM) system (copyright 1992, Gaussian, Inc.),
 the Gaussian 90(TM) system (copyright 1990, Gaussian, Inc.),
 the Gaussian 88(TM) system (copyright 1988, Gaussian, Inc.),
 the Gaussian 86(TM) system (copyright 1986, Carnegie Mellon
 University), and the Gaussian 82(TM) system (copyright 1983,
 Carnegie Mellon University). Gaussian is a federally registered
 trademark of Gaussian, Inc.
  
 This software contains proprietary and confidential information,
 including trade secrets, belonging to Gaussian, Inc.
  
 This software is provided under written license and may be
 used, copied, transmitted, or stored only in accord with that
 written license.
  
 The following legend is applicable only to US Government
 contracts under FAR:
  
                    RESTRICTED RIGHTS LEGEND
  
 Use, reproduction and disclosure by the US Government is
 subject to restrictions as set forth in subparagraphs (a)
 and (c) of the Commercial Computer Software - Restricted
 Rights clause in FAR 52.227-19.
  
 Gaussian, Inc.
 340 Quinnipiac St., Bldg. 40, Wallingford CT 06492
  
  
 ---------------------------------------------------------------
 Warning -- This program may not be used in any manner that
 competes with the business of Gaussian, Inc. or will provide
 assistance to any competitor of Gaussian, Inc.  The licensee
 of this program is prohibited from giving any competitor of
 Gaussian, Inc. access to this program.  By using this program,
 the user acknowledges that Gaussian, Inc. is engaged in the
 business of creating and licensing software in the field of
 computational chemistry and represents and warrants to the
 licensee that it is not a competitor of Gaussian, Inc. and that
 it will not use this program in any manner prohibited above.
 ---------------------------------------------------------------
  

 Cite this work as:
 Gaussian 09, Revision A.02,
 M. J. Frisch, G. W. Trucks, H. B. Schlegel, G. E. Scuseria, 
 M. A. Robb, J. R. Cheeseman, G. Scalmani, V. Barone, B. Mennucci, 
 G. A. Petersson, H. Nakatsuji, M. Caricato, X. Li, H. P. Hratchian, 
 A. F. Izmaylov, J. Bloino, G. Zheng, J. L. Sonnenberg, M. Hada, 
 M. Ehara, K. Toyota, R. Fukuda, J. Hasegawa, M. Ishida, T. Nakajima, 
 Y. Honda, O. Kitao, H. Nakai, T. Vreven, J. A. Montgomery, Jr., 
 J. E. Peralta, F. Ogliaro, M. Bearpark, J. J. Heyd, E. Brothers, 
 K. N. Kudin, V. N. Staroverov, R. Kobayashi, J. Normand, 
 K. Raghavachari, A. Rendell, J. C. Burant, S. S. Iyengar, J. Tomasi, 
 M. Cossi, N. Rega, J. M. Millam, M. Klene, J. E. Knox, J. B. Cross, 
 V. Bakken, C. Adamo, J. Jaramillo, R. Gomperts, R. E. Stratmann, 
 O. Yazyev, A. J. Austin, R. Cammi, C. Pomelli, J. W. Ochterski, 
 R. L. Martin, K. Morokuma, V. G. Zakrzewski, G. A. Voth, 
 P. Salvador, J. J. Dannenberg, S. Dapprich, A. D. Daniels, 
 O. Farkas, J. B. Foresman, J. V. Ortiz, J. Cioslowski, 
 and D. J. Fox, Gaussian, Inc., Wallingford CT, 2009.
 
 ******************************************
 Gaussian 09:  EM64L-G09RevA.02 11-Jun-2009
                14-Dec-2021 
 ******************************************
 %Mem=3800MB
 %NProcShared=6
 Will use up to    6 processors via shared memory.
 %chk=/home/itamar/Aromaticity-test-set/T6-Subst-Complex-in-Benzene/COCH3/coch3.c
 hk
 -----------------------------
 #P MP2/6-311++G** DENSITY=MP2
 -----------------------------
 1/30=1,38=1/1;
 2/12=2,17=6,18=5,40=1/2;
 3/5=4,6=6,7=1111,11=9,16=1,25=1,30=1,71=1/1,2,3;
 4//1;
 5/5=2,38=5/2;
 8/6=4,10=2/1;
 9/15=1,16=-3/6;
 10/5=1,13=10/2;
 6/7=2,8=2,9=2,10=2,22=2/1;
 99/5=1,9=1/99;
 Leave Link    1 at Tue Dec 14 10:51:46 2021, MaxMem=  498073600 cpu:       0.3
 (Enter /apps/software//g09/l101.exe)
 -------------------------------------------------
 X=COCH3 - In the original geometry missing oxygen
 -------------------------------------------------
 Symbolic Z-matrix:
 Charge =  0 Multiplicity = 1
 6                    -1.94491   1.10683   0.00003 
 6                    -2.51817  -0.16644  -0.00001 
 6                    -1.70292  -1.29658   0.00002 
 6                    -0.31688  -1.15587   0.00008 
 6                     0.26748   0.11757   0.00012 
 6                    -0.56281   1.24735   0.0001 
 6                     1.75488   0.32436   0.00022 
 8                     2.22451   1.44684   0.00004 
 6                     2.66412  -0.89068  -0.0001 
 1                    -0.09889   2.22608   0.00014 
 1                    -2.57842   1.98666   0.00002 
 1                    -3.59694  -0.27637  -0.00006 
 1                    -2.14538  -2.28625  -0.00001 
 1                     0.3035   -2.0438    0.0001 
 1                     3.69894  -0.55268  -0.00024 
 1                     2.4857   -1.51255   0.88201 
 1                     2.48539  -1.51236  -0.88228 
 
 NAtoms=     17 NQM=     17 NQMF=      0 NMic=      0 NMicF=      0 NTot=     17.
                    Isotopes and Nuclear Properties:
 (Nuclear quadrupole moments (NQMom) in fm**2, nuclear magnetic moments (NMagM)
  in nuclear magnetons)

  Atom         1           2           3           4           5           6           7           8           9          10
 IAtWgt=          12          12          12          12          12          12          12          16          12           1
 AtmWgt=  12.0000000  12.0000000  12.0000000  12.0000000  12.0000000  12.0000000  12.0000000  15.9949146  12.0000000   1.0078250
 NucSpn=           0           0           0           0           0           0           0           0           0           1
 AtZEff=   0.0000000   0.0000000   0.0000000   0.0000000   0.0000000   0.0000000   0.0000000   0.0000000   0.0000000   0.0000000
 NQMom=    0.0000000   0.0000000   0.0000000   0.0000000   0.0000000   0.0000000   0.0000000   0.0000000   0.0000000   0.0000000
 NMagM=    0.0000000   0.0000000   0.0000000   0.0000000   0.0000000   0.0000000   0.0000000   0.0000000   0.0000000   2.7928460

  Atom        11          12          13          14          15          16          17
 IAtWgt=           1           1           1           1           1           1           1
 AtmWgt=   1.0078250   1.0078250   1.0078250   1.0078250   1.0078250   1.0078250   1.0078250
 NucSpn=           1           1           1           1           1           1           1
 AtZEff=   0.0000000   0.0000000   0.0000000   0.0000000   0.0000000   0.0000000   0.0000000
 NQMom=    0.0000000   0.0000000   0.0000000   0.0000000   0.0000000   0.0000000   0.0000000
 NMagM=    2.7928460   2.7928460   2.7928460   2.7928460   2.7928460   2.7928460   2.7928460
 Leave Link  101 at Tue Dec 14 10:51:46 2021, MaxMem=  498073600 cpu:       0.3
 (Enter /apps/software//g09/l202.exe)
                          Input orientation:                          
 ---------------------------------------------------------------------
 Center     Atomic      Atomic             Coordinates (Angstroms)
 Number     Number       Type             X           Y           Z
 ---------------------------------------------------------------------
      1          6           0       -1.944913    1.106828    0.000034
      2          6           0       -2.518174   -0.166443   -0.000008
      3          6           0       -1.702924   -1.296581    0.000020
      4          6           0       -0.316881   -1.155869    0.000080
      5          6           0        0.267483    0.117573    0.000124
      6          6           0       -0.562807    1.247347    0.000101
      7          6           0        1.754883    0.324361    0.000215
      8          8           0        2.224506    1.446837    0.000041
      9          6           0        2.664115   -0.890681   -0.000097
     10          1           0       -0.098892    2.226084    0.000140
     11          1           0       -2.578422    1.986655    0.000015
     12          1           0       -3.596942   -0.276371   -0.000058
     13          1           0       -2.145375   -2.286246   -0.000008
     14          1           0        0.303504   -2.043803    0.000103
     15          1           0        3.698939   -0.552677   -0.000236
     16          1           0        2.485698   -1.512554    0.882014
     17          1           0        2.485393   -1.512363   -0.882282
 ---------------------------------------------------------------------
                    Distance matrix (angstroms):
                    1          2          3          4          5
     1  C    0.000000
     2  C    1.396369   0.000000
     3  C    2.415561   1.393501   0.000000
     4  C    2.787523   2.413432   1.393167   0.000000
     5  C    2.423494   2.800098   2.425353   1.401119   0.000000
     6  C    1.389231   2.412936   2.787730   2.415766   1.402059
     7  C    3.781633   4.301152   3.818885   2.546230   1.501706
     8  O    4.183260   5.009559   4.790725   3.637681   2.365773
     9  C    5.023264   5.232651   4.385862   2.992768   2.600081
    10  H    2.158825   3.402515   3.870670   3.388971   2.140105
    11  H    1.084172   2.153941   3.397960   3.871695   3.404797
    12  H    2.154632   1.084354   2.151310   3.395927   3.884453
    13  H    3.398990   2.152335   1.084066   2.149684   3.405911
    14  H    3.870640   3.389151   2.141050   1.083192   2.161676
    15  H    5.882773   6.229099   5.452845   4.060868   3.496302
    16  H    5.222008   5.256302   4.285920   2.959642   2.890592
    17  H    5.221710   5.256005   4.285676   2.959458   2.890408
                    6          7          8          9         10
     6  C    0.000000
     7  C    2.494712   0.000000
     8  O    2.794443   1.216757   0.000000
     9  C    3.870942   1.517574   2.378497   0.000000
    10  H    1.083117   2.655755   2.450593   4.165145   0.000000
    11  H    2.146923   4.641202   4.833169   5.980239   2.491063
    12  H    3.395245   5.385435   6.071137   6.291122   4.301004
    13  H    3.871796   4.693323   5.747327   5.007873   4.954716
    14  H    3.403258   2.777535   3.984321   2.627199   4.288806
    15  H    4.626291   2.132733   2.484353   1.088626   4.705851
    16  H    4.205735   2.164698   3.099047   1.093928   4.629819
    17  H    4.205487   2.164717   3.098939   1.093929   4.629599
                   11         12         13         14         15
    11  H    0.000000
    12  H    2.481667   0.000000
    13  H    4.294789   2.479243   0.000000
    14  H    4.954805   4.282207   2.460851   0.000000
    15  H    6.771519   7.301111   6.096004   3.708428   0.000000
    16  H    6.218336   6.269347   4.777384   2.412874   1.780922
    17  H    6.218022   6.269035   4.777166   2.412814   1.780926
                   16         17
    16  H    0.000000
    17  H    1.764296   0.000000
 Stoichiometry    C8H8O
 Framework group  C1[X(C8H8O)]
 Deg. of freedom    45
 Full point group                 C1      NOp   1
 Largest Abelian subgroup         C1      NOp   1
 Largest concise Abelian subgroup C1      NOp   1
                         Standard orientation:                         
 ---------------------------------------------------------------------
 Center     Atomic      Atomic             Coordinates (Angstroms)
 Number     Number       Type             X           Y           Z
 ---------------------------------------------------------------------
      1          6           0       -1.966447   -1.134835    0.000010
      2          6           0       -2.590402    0.114375    0.000052
      3          6           0       -1.821217    1.276355    0.000024
      4          6           0       -0.430639    1.191445   -0.000036
      5          6           0        0.204417   -0.057490   -0.000080
      6          6           0       -0.579811   -1.219711   -0.000057
      7          6           0        1.698924   -0.204351   -0.000171
      8          8           0        2.213266   -1.307052    0.000003
      9          6           0        2.558604    1.046241    0.000141
     10          1           0       -0.076948   -2.179019   -0.000096
     11          1           0       -2.564095   -2.039405    0.000029
     12          1           0       -3.672716    0.180872    0.000102
     13          1           0       -2.303073    2.247445    0.000052
     14          1           0        0.153569    2.103588   -0.000059
     15          1           0        3.606173    0.750086    0.000280
     16          1           0        2.355346    1.660443   -0.881970
     17          1           0        2.355049    1.660240    0.882326
 ---------------------------------------------------------------------
 Rotational constants (GHZ):      3.6952524      1.2123345      0.9180503
 Leave Link  202 at Tue Dec 14 10:51:46 2021, MaxMem=  498073600 cpu:       0.1
 (Enter /apps/software//g09/l301.exe)
 Standard basis: 6-311++G(d,p) (5D, 7F)
 Ernie: Thresh=  0.10000D-02 Tol=  0.10000D-05 Strict=F.
 There are   254 symmetry adapted basis functions of A   symmetry.
 Integral buffers will be    131072 words long.
 Raffenetti 1 integral format.
 Two-electron integral symmetry is turned on.
   254 basis functions,   396 primitive gaussians,   263 cartesian basis functions
    32 alpha electrons       32 beta electrons
       nuclear repulsion energy       401.0439941817 Hartrees.
 IExCor=    0 DFT=F Ex=HF Corr=None ExCW=0 ScaHFX=  1.000000
 ScaDFX=  1.000000  1.000000  1.000000  1.000000 ScalE2=  1.000000  1.000000
 IRadAn=      0 IRanWt=     -1 IRanGd=            0 ICorTp=0
 NAtoms=   17 NActive=   17 NUniq=   17 SFac= 7.50D-01 NAtFMM=   80 NAOKFM=F Big=F
 Leave Link  301 at Tue Dec 14 10:51:46 2021, MaxMem=  498073600 cpu:       0.2
 (Enter /apps/software//g09/l302.exe)
 NPDir=0 NMtPBC=     1 NCelOv=     1 NCel=       1 NClECP=     1 NCelD=      1
         NCelK=      1 NCelE2=     1 NClLst=     1 CellRange=     0.0.
 One-electron integrals computed using PRISM.
 NBasis=   254 RedAO= T  NBF=   254
 NBsUse=   253 1.00D-06 NBFU=   253
 Leave Link  302 at Tue Dec 14 10:51:47 2021, MaxMem=  498073600 cpu:       2.3
 (Enter /apps/software//g09/l303.exe)
 DipDrv:  MaxL=1.
 Leave Link  303 at Tue Dec 14 10:51:47 2021, MaxMem=  498073600 cpu:       0.2
 (Enter /apps/software//g09/l401.exe)
 Harris functional with IExCor=  205 diagonalized for initial guess.
 ExpMin= 3.60D-02 ExpMax= 8.59D+03 ExpMxC= 1.30D+03 IAcc=3 IRadAn=         0 AccDes= 0.00D+00
 HarFok:  IExCor=  205 AccDes= 0.00D+00 IRadAn=         0 IDoV= 1
 ScaDFX=  1.000000  1.000000  1.000000  1.000000
 FoFCou: FMM=F IPFlag=           0 FMFlag=      100000 FMFlg1=           0
         NFxFlg=           0 DoJE=T BraDBF=F KetDBF=T FulRan=T
         Omega=  0.000000  0.000000  1.000000  0.000000  0.000000 ICntrl=     500 IOpCl=  0
         NMat0=    1 NMatS0=    1 NMatT0=    0 NMatD0=    1 NMtDS0=    0 NMtDT0=    0
         I1Cent=           4 NGrid=           0.
 Petite list used in FoFCou.
 Harris En= -383.107586545681    
 Initial guess orbital symmetries:
       Occupied  (A) (A) (A) (A) (A) (A) (A) (A) (A) (A) (A) (A)
                 (A) (A) (A) (A) (A) (A) (A) (A) (A) (A) (A) (A)
                 (A) (A) (A) (A) (A) (A) (A) (A)
       Virtual   (A) (A) (A) (A) (A) (A) (A) (A) (A) (A) (A) (A)
                 (A) (A) (A) (A) (A) (A) (A) (A) (A) (A) (A) (A)
                 (A) (A) (A) (A) (A) (A) (A) (A) (A) (A) (A) (A)
                 (A) (A) (A) (A) (A) (A) (A) (A) (A) (A) (A) (A)
                 (A) (A) (A) (A) (A) (A) (A) (A) (A) (A) (A) (A)
                 (A) (A) (A) (A) (A) (A) (A) (A) (A) (A) (A) (A)
                 (A) (A) (A) (A) (A) (A) (A) (A) (A) (A) (A) (A)
                 (A) (A) (A) (A) (A) (A) (A) (A) (A) (A) (A) (A)
                 (A) (A) (A) (A) (A) (A) (A) (A) (A) (A) (A) (A)
                 (A) (A) (A) (A) (A) (A) (A) (A) (A) (A) (A) (A)
                 (A) (A) (A) (A) (A) (A) (A) (A) (A) (A) (A) (A)
                 (A) (A) (A) (A) (A) (A) (A) (A) (A) (A) (A) (A)
                 (A) (A) (A) (A) (A) (A) (A) (A) (A) (A) (A) (A)
                 (A) (A) (A) (A) (A) (A) (A) (A) (A) (A) (A) (A)
                 (A) (A) (A) (A) (A) (A) (A) (A) (A) (A) (A) (A)
                 (A) (A) (A) (A) (A) (A) (A) (A) (A) (A) (A) (A)
                 (A) (A) (A) (A) (A) (A) (A) (A) (A) (A) (A) (A)
                 (A) (A) (A) (A) (A) (A) (A) (A) (A) (A) (A) (A)
                 (A) (A) (A) (A) (A)
 The electronic state of the initial guess is 1-A.
 Leave Link  401 at Tue Dec 14 10:51:48 2021, MaxMem=  498073600 cpu:       7.1
 (Enter /apps/software//g09/l502.exe)
 Closed shell SCF:
 Requested convergence on RMS density matrix=1.00D-08 within 128 cycles.
 Requested convergence on MAX density matrix=1.00D-06.
 Requested convergence on             energy=1.00D-06.
 No special actions if energy rises.
 Using DIIS extrapolation, IDIIS=  1040.
 Integral symmetry usage will be decided dynamically.
 IEnd=      229191 IEndB=      229191 NGot=   498073600 MDV=   497930482
 LenX=   497930482 LenY=   497860872
 Fock matrices will be formed incrementally for  20 cycles.

 Cycle   1  Pass 0  IDiag  1:
 FoFCou: FMM=F IPFlag=           0 FMFlag=      100000 FMFlg1=           0
         NFxFlg=           0 DoJE=F BraDBF=F KetDBF=F FulRan=T
         Omega=  0.000000  0.000000  1.000000  0.000000  0.000000 ICntrl=       0 IOpCl=  0
         NMat0=    1 NMatS0=    1 NMatT0=    0 NMatD0=    1 NMtDS0=    0 NMtDT0=    0
         I1Cent=           0 NGrid=           0.
 Symmetry not used in FoFCou.
 E= -382.147874450684    
 DIIS: error= 6.87D-02 at cycle   1 NSaved=   1.
 NSaved= 1 IEnMin= 1 EnMin= -382.147874450684     IErMin= 1 ErrMin= 6.87D-02
 ErrMax= 6.87D-02 EMaxC= 1.00D-01 BMatC= 8.15D-01 BMatP= 8.15D-01
 IDIUse=3 WtCom= 3.13D-01 WtEn= 6.87D-01
 Coeff-Com:  0.100D+01
 Coeff-En:   0.100D+01
 Coeff:      0.100D+01
 Gap=     0.474 Goal=   None    Shift=    0.000
 GapD=    0.474 DampG=2.000 DampE=0.500 DampFc=1.0000 IDamp=-1.
 RMSDP=1.96D-02 MaxDP=2.09D+00              OVMax= 1.48D-01

 Cycle   2  Pass 0  IDiag  1:
 RMSU=  1.23D-02    CP:  8.16D-01
 E= -382.503389087132     Delta-E=       -0.355514636448 Rises=F Damp=F
 DIIS: error= 1.90D-02 at cycle   2 NSaved=   2.
 NSaved= 2 IEnMin= 2 EnMin= -382.503389087132     IErMin= 2 ErrMin= 1.90D-02
 ErrMax= 1.90D-02 EMaxC= 1.00D-01 BMatC= 7.58D-02 BMatP= 8.15D-01
 IDIUse=3 WtCom= 8.10D-01 WtEn= 1.90D-01
 Coeff-Com:  0.156D+00 0.844D+00
 Coeff-En:   0.000D+00 0.100D+01
 Coeff:      0.126D+00 0.874D+00
 Gap=     0.413 Goal=   None    Shift=    0.000
 RMSDP=8.63D-03 MaxDP=6.63D-01 DE=-3.56D-01 OVMax= 5.09D-02

 Cycle   3  Pass 0  IDiag  1:
 RMSU=  3.85D-03    CP:  8.56D-01  6.32D-01
 E= -382.557187357154     Delta-E=       -0.053798270022 Rises=F Damp=F
 DIIS: error= 8.37D-03 at cycle   3 NSaved=   3.
 NSaved= 3 IEnMin= 3 EnMin= -382.557187357154     IErMin= 3 ErrMin= 8.37D-03
 ErrMax= 8.37D-03 EMaxC= 1.00D-01 BMatC= 1.16D-02 BMatP= 7.58D-02
 IDIUse=3 WtCom= 9.16D-01 WtEn= 8.37D-02
 Coeff-Com: -0.149D-01 0.253D+00 0.762D+00
 Coeff-En:   0.000D+00 0.000D+00 0.100D+01
 Coeff:     -0.137D-01 0.232D+00 0.782D+00
 Gap=     0.387 Goal=   None    Shift=    0.000
 RMSDP=3.29D-03 MaxDP=3.57D-01 DE=-5.38D-02 OVMax= 2.62D-02

 Cycle   4  Pass 0  IDiag  1:
 RMSU=  9.13D-04    CP:  8.20D-01  7.66D-01  8.54D-01
 E= -382.565492601692     Delta-E=       -0.008305244538 Rises=F Damp=F
 DIIS: error= 2.42D-03 at cycle   4 NSaved=   4.
 NSaved= 4 IEnMin= 4 EnMin= -382.565492601692     IErMin= 4 ErrMin= 2.42D-03
 ErrMax= 2.42D-03 EMaxC= 1.00D-01 BMatC= 8.51D-04 BMatP= 1.16D-02
 IDIUse=3 WtCom= 9.76D-01 WtEn= 2.42D-02
 Coeff-Com: -0.962D-02 0.544D-01 0.288D+00 0.667D+00
 Coeff-En:   0.000D+00 0.000D+00 0.000D+00 0.100D+01
 Coeff:     -0.939D-02 0.531D-01 0.281D+00 0.675D+00
 Gap=     0.381 Goal=   None    Shift=    0.000
 RMSDP=7.21D-04 MaxDP=4.24D-02 DE=-8.31D-03 OVMax= 5.79D-03

 Cycle   5  Pass 0  IDiag  1:
 RMSU=  3.91D-04    CP:  8.27D-01  7.75D-01  9.03D-01  9.70D-01
 E= -382.566186055872     Delta-E=       -0.000693454180 Rises=F Damp=F
 DIIS: error= 8.82D-04 at cycle   5 NSaved=   5.
 NSaved= 5 IEnMin= 5 EnMin= -382.566186055872     IErMin= 5 ErrMin= 8.82D-04
 ErrMax= 8.82D-04 EMaxC= 1.00D-01 BMatC= 3.15D-05 BMatP= 8.51D-04
 IDIUse=3 WtCom= 9.91D-01 WtEn= 8.82D-03
 Coeff-Com:  0.449D-03-0.180D-01-0.489D-01 0.621D-01 0.100D+01
 Coeff-En:   0.000D+00 0.000D+00 0.000D+00 0.000D+00 0.100D+01
 Coeff:      0.445D-03-0.178D-01-0.484D-01 0.615D-01 0.100D+01
 Gap=     0.382 Goal=   None    Shift=    0.000
 RMSDP=3.64D-04 MaxDP=2.15D-02 DE=-6.93D-04 OVMax= 2.55D-03

 Cycle   6  Pass 0  IDiag  1:
 RMSU=  9.32D-05    CP:  8.31D-01  7.79D-01  9.25D-01  1.07D+00  1.30D+00
 E= -382.566238937437     Delta-E=       -0.000052881565 Rises=F Damp=F
 DIIS: error= 1.51D-04 at cycle   6 NSaved=   6.
 NSaved= 6 IEnMin= 6 EnMin= -382.566238937437     IErMin= 6 ErrMin= 1.51D-04
 ErrMax= 1.51D-04 EMaxC= 1.00D-01 BMatC= 3.34D-06 BMatP= 3.15D-05
 IDIUse=3 WtCom= 9.98D-01 WtEn= 1.51D-03
 Coeff-Com:  0.899D-03-0.801D-02-0.315D-01-0.589D-01 0.128D+00 0.969D+00
 Coeff-En:   0.000D+00 0.000D+00 0.000D+00 0.000D+00 0.000D+00 0.100D+01
 Coeff:      0.897D-03-0.800D-02-0.315D-01-0.588D-01 0.128D+00 0.969D+00
 Gap=     0.382 Goal=   None    Shift=    0.000
 RMSDP=1.44D-04 MaxDP=6.50D-03 DE=-5.29D-05 OVMax= 8.71D-04

 Cycle   7  Pass 0  IDiag  1:
 RMSU=  2.15D-05    CP:  8.33D-01  7.83D-01  9.32D-01  1.11D+00  1.46D+00
                    CP:  1.17D+00
 E= -382.566245629025     Delta-E=       -0.000006691588 Rises=F Damp=F
 DIIS: error= 9.28D-05 at cycle   7 NSaved=   7.
 NSaved= 7 IEnMin= 7 EnMin= -382.566245629025     IErMin= 7 ErrMin= 9.28D-05
 ErrMax= 9.28D-05 EMaxC= 1.00D-01 BMatC= 4.23D-07 BMatP= 3.34D-06
 IDIUse=1 WtCom= 1.00D+00 WtEn= 0.00D+00
 Coeff-Com:  0.114D-04 0.102D-02 0.363D-02-0.140D-01-0.729D-01 0.299D-01
 Coeff-Com:  0.105D+01
 Coeff:      0.114D-04 0.102D-02 0.363D-02-0.140D-01-0.729D-01 0.299D-01
 Coeff:      0.105D+01
 Gap=     0.382 Goal=   None    Shift=    0.000
 RMSDP=4.55D-05 MaxDP=3.71D-03 DE=-6.69D-06 OVMax= 4.39D-04

 Cycle   8  Pass 0  IDiag  1:
 RMSU=  6.62D-06    CP:  8.33D-01  7.83D-01  9.34D-01  1.12D+00  1.51D+00
                    CP:  1.25D+00  1.20D+00
 E= -382.566246773548     Delta-E=       -0.000001144523 Rises=F Damp=F
 DIIS: error= 4.03D-05 at cycle   8 NSaved=   8.
 NSaved= 8 IEnMin= 8 EnMin= -382.566246773548     IErMin= 8 ErrMin= 4.03D-05
 ErrMax= 4.03D-05 EMaxC= 1.00D-01 BMatC= 7.76D-08 BMatP= 4.23D-07
 IDIUse=1 WtCom= 1.00D+00 WtEn= 0.00D+00
 Coeff-Com: -0.144D-03 0.111D-02 0.474D-02 0.938D-02 0.348D-02-0.173D+00
 Coeff-Com: -0.281D+00 0.144D+01
 Coeff:     -0.144D-03 0.111D-02 0.474D-02 0.938D-02 0.348D-02-0.173D+00
 Coeff:     -0.281D+00 0.144D+01
 Gap=     0.382 Goal=   None    Shift=    0.000
 RMSDP=1.50D-05 MaxDP=1.31D-03 DE=-1.14D-06 OVMax= 2.83D-04

 Cycle   9  Pass 0  IDiag  1:
 RMSU=  3.46D-06    CP:  8.33D-01  7.83D-01  9.34D-01  1.12D+00  1.53D+00
                    CP:  1.27D+00  1.31D+00  1.55D+00
 E= -382.566247077514     Delta-E=       -0.000000303966 Rises=F Damp=F
 DIIS: error= 9.19D-06 at cycle   9 NSaved=   9.
 NSaved= 9 IEnMin= 9 EnMin= -382.566247077514     IErMin= 9 ErrMin= 9.19D-06
 ErrMax= 9.19D-06 EMaxC= 1.00D-01 BMatC= 7.68D-09 BMatP= 7.76D-08
 IDIUse=1 WtCom= 1.00D+00 WtEn= 0.00D+00
 Coeff-Com: -0.175D-04 0.198D-04 0.124D-03 0.171D-02 0.829D-02-0.157D-01
 Coeff-Com: -0.147D+00 0.152D+00 0.100D+01
 Coeff:     -0.175D-04 0.198D-04 0.124D-03 0.171D-02 0.829D-02-0.157D-01
 Coeff:     -0.147D+00 0.152D+00 0.100D+01
 Gap=     0.382 Goal=   None    Shift=    0.000
 RMSDP=4.30D-06 MaxDP=2.11D-04 DE=-3.04D-07 OVMax= 9.57D-05

 Initial convergence to 1.0D-05 achieved.  Increase integral accuracy.
 Cycle  10  Pass 1  IDiag  1:
 E= -382.566247101735     Delta-E=       -0.000000024221 Rises=F Damp=F
 DIIS: error= 7.13D-06 at cycle   1 NSaved=   1.
 NSaved= 1 IEnMin= 1 EnMin= -382.566247101735     IErMin= 1 ErrMin= 7.13D-06
 ErrMax= 7.13D-06 EMaxC= 1.00D-01 BMatC= 1.38D-09 BMatP= 1.38D-09
 IDIUse=1 WtCom= 1.00D+00 WtEn= 0.00D+00
 Coeff-Com:  0.100D+01
 Coeff:      0.100D+01
 Gap=     0.382 Goal=   None    Shift=    0.000
 RMSDP=4.30D-06 MaxDP=2.11D-04 DE=-2.42D-08 OVMax= 3.76D-05

 Cycle  11  Pass 1  IDiag  1:
 RMSU=  1.17D-06    CP:  1.00D+00
 E= -382.566247105228     Delta-E=       -0.000000003494 Rises=F Damp=F
 DIIS: error= 3.39D-06 at cycle   2 NSaved=   2.
 NSaved= 2 IEnMin= 2 EnMin= -382.566247105228     IErMin= 2 ErrMin= 3.39D-06
 ErrMax= 3.39D-06 EMaxC= 1.00D-01 BMatC= 5.85D-10 BMatP= 1.38D-09
 IDIUse=1 WtCom= 1.00D+00 WtEn= 0.00D+00
 Coeff-Com:  0.290D+00 0.710D+00
 Coeff:      0.290D+00 0.710D+00
 Gap=     0.382 Goal=   None    Shift=    0.000
 RMSDP=6.70D-07 MaxDP=4.03D-05 DE=-3.49D-09 OVMax= 1.73D-05

 Cycle  12  Pass 1  IDiag  1:
 RMSU=  2.25D-07    CP:  1.00D+00  1.19D+00
 E= -382.566247106452     Delta-E=       -0.000000001224 Rises=F Damp=F
 DIIS: error= 2.78D-06 at cycle   3 NSaved=   3.
 NSaved= 3 IEnMin= 3 EnMin= -382.566247106452     IErMin= 3 ErrMin= 2.78D-06
 ErrMax= 2.78D-06 EMaxC= 1.00D-01 BMatC= 1.68D-10 BMatP= 5.85D-10
 IDIUse=1 WtCom= 1.00D+00 WtEn= 0.00D+00
 Coeff-Com: -0.514D+00-0.334D+00 0.185D+01
 Coeff:     -0.514D+00-0.334D+00 0.185D+01
 Gap=     0.382 Goal=   None    Shift=    0.000
 RMSDP=1.33D-06 MaxDP=6.95D-05 DE=-1.22D-09 OVMax= 3.02D-05

 Cycle  13  Pass 1  IDiag  1:
 RMSU=  1.55D-07    CP:  1.00D+00  1.69D+00  1.67D+00
 E= -382.566247107580     Delta-E=       -0.000000001128 Rises=F Damp=F
 DIIS: error= 5.38D-07 at cycle   4 NSaved=   4.
 NSaved= 4 IEnMin= 4 EnMin= -382.566247107580     IErMin= 4 ErrMin= 5.38D-07
 ErrMax= 5.38D-07 EMaxC= 1.00D-01 BMatC= 1.64D-11 BMatP= 1.68D-10
 IDIUse=1 WtCom= 1.00D+00 WtEn= 0.00D+00
 Coeff-Com: -0.841D-01-0.104D+00 0.204D+00 0.984D+00
 Coeff:     -0.841D-01-0.104D+00 0.204D+00 0.984D+00
 Gap=     0.382 Goal=   None    Shift=    0.000
 RMSDP=1.58D-07 MaxDP=9.02D-06 DE=-1.13D-09 OVMax= 5.94D-06

 Cycle  14  Pass 1  IDiag  1:
 RMSU=  5.62D-08    CP:  1.00D+00  1.70D+00  1.70D+00  1.61D+00
 E= -382.566247107654     Delta-E=       -0.000000000074 Rises=F Damp=F
 DIIS: error= 2.85D-07 at cycle   5 NSaved=   5.
 NSaved= 5 IEnMin= 5 EnMin= -382.566247107654     IErMin= 5 ErrMin= 2.85D-07
 ErrMax= 2.85D-07 EMaxC= 1.00D-01 BMatC= 4.05D-12 BMatP= 1.64D-11
 IDIUse=1 WtCom= 1.00D+00 WtEn= 0.00D+00
 Coeff-Com:  0.164D+00 0.100D+00-0.594D+00 0.906D-01 0.124D+01
 Coeff:      0.164D+00 0.100D+00-0.594D+00 0.906D-01 0.124D+01
 Gap=     0.382 Goal=   None    Shift=    0.000
 RMSDP=1.86D-07 MaxDP=1.19D-05 DE=-7.41D-11 OVMax= 3.69D-06

 Cycle  15  Pass 1  IDiag  1:
 RMSU=  2.30D-08    CP:  1.00D+00  1.65D+00  1.64D+00  2.05D+00  1.39D+00
 E= -382.566247107676     Delta-E=       -0.000000000022 Rises=F Damp=F
 DIIS: error= 8.40D-08 at cycle   6 NSaved=   6.
 NSaved= 6 IEnMin= 6 EnMin= -382.566247107676     IErMin= 6 ErrMin= 8.40D-08
 ErrMax= 8.40D-08 EMaxC= 1.00D-01 BMatC= 5.47D-13 BMatP= 4.05D-12
 IDIUse=1 WtCom= 1.00D+00 WtEn= 0.00D+00
 Coeff-Com:  0.662D-01 0.468D-01-0.227D+00-0.708D-01 0.449D+00 0.736D+00
 Coeff:      0.662D-01 0.468D-01-0.227D+00-0.708D-01 0.449D+00 0.736D+00
 Gap=     0.382 Goal=   None    Shift=    0.000
 RMSDP=2.16D-08 MaxDP=1.32D-06 DE=-2.18D-11 OVMax= 4.36D-07

 Cycle  16  Pass 1  IDiag  1:
 RMSU=  8.46D-09    CP:  1.00D+00  1.64D+00  1.63D+00  2.08D+00  1.49D+00
                    CP:  1.11D+00
 E= -382.566247107679     Delta-E=       -0.000000000003 Rises=F Damp=F
 DIIS: error= 2.69D-08 at cycle   7 NSaved=   7.
 NSaved= 7 IEnMin= 7 EnMin= -382.566247107679     IErMin= 7 ErrMin= 2.69D-08
 ErrMax= 2.69D-08 EMaxC= 1.00D-01 BMatC= 4.14D-14 BMatP= 5.47D-13
 IDIUse=1 WtCom= 1.00D+00 WtEn= 0.00D+00
 Coeff-Com: -0.240D-01-0.148D-01 0.858D-01-0.192D-01-0.160D+00-0.102D+00
 Coeff-Com:  0.123D+01
 Coeff:     -0.240D-01-0.148D-01 0.858D-01-0.192D-01-0.160D+00-0.102D+00
 Coeff:      0.123D+01
 Gap=     0.382 Goal=   None    Shift=    0.000
 RMSDP=1.18D-08 MaxDP=6.08D-07 DE=-2.84D-12 OVMax= 2.32D-07

 Cycle  17  Pass 1  IDiag  1:
 RMSU=  3.49D-09    CP:  1.00D+00  1.65D+00  1.63D+00  2.07D+00  1.54D+00
                    CP:  1.19D+00  1.22D+00
 E= -382.566247107677     Delta-E=        0.000000000001 Rises=F Damp=F
 DIIS: error= 1.08D-08 at cycle   8 NSaved=   8.
 NSaved= 8 IEnMin= 7 EnMin= -382.566247107679     IErMin= 8 ErrMin= 1.08D-08
 ErrMax= 1.08D-08 EMaxC= 1.00D-01 BMatC= 9.90D-15 BMatP= 4.14D-14
 IDIUse=1 WtCom= 1.00D+00 WtEn= 0.00D+00
 Coeff-Com: -0.764D-02-0.509D-02 0.263D-01 0.576D-02-0.424D-01-0.135D+00
 Coeff-Com:  0.498D-01 0.111D+01
 Coeff:     -0.764D-02-0.509D-02 0.263D-01 0.576D-02-0.424D-01-0.135D+00
 Coeff:      0.498D-01 0.111D+01
 Gap=     0.382 Goal=   None    Shift=    0.000
 RMSDP=6.92D-09 MaxDP=6.09D-07 DE= 1.48D-12 OVMax= 1.03D-07

 SCF Done:  E(RHF) =  -382.566247108     A.U. after   17 cycles
             Convg  =    0.6919D-08             -V/T =  2.0013
 KE= 3.820838555678D+02 PE=-1.695415082677D+03 EE= 5.297209858196D+02
 Leave Link  502 at Tue Dec 14 10:53:23 2021, MaxMem=  498073600 cpu:     567.4
 (Enter /apps/software//g09/l801.exe)
 ExpMin= 3.60D-02 ExpMax= 8.59D+03 ExpMxC= 1.30D+03 IAcc=3 IRadAn=         5 AccDes= 0.00D+00
 HarFok:  IExCor=  205 AccDes= 0.00D+00 IRadAn=         5 IDoV=-2
 ScaDFX=  1.000000  1.000000  1.000000  1.000000
 Largest valence mixing into a core orbital is  1.39D-04
 Largest core mixing into a valence orbital is  4.13D-05
 Range of M.O.s used for correlation:    10   253
 NBasis=   254 NAE=    32 NBE=    32 NFC=     9 NFV=     0
 NROrb=    244 NOA=    23 NOB=    23 NVA=   221 NVB=   221

 **** Warning!!: The largest alpha MO coefficient is  0.18179651D+03

 Leave Link  801 at Tue Dec 14 10:53:23 2021, MaxMem=  498073600 cpu:       1.7
 (Enter /apps/software//g09/l906.exe)
 Frozen-core derivative calculation, NFC=   9 NFV=   0.
 FulOut=F Deriv=T AODrv=F NAtomX=    17
   MMem=          56  MDisk=          23 MDiskD=          23
  W3Min=     2129248 MinDsk=     2859892 NBas6D=         263
 NBas2D=       35091    NTT=       34716    LW2=     2040000
    MDV=   497349115 MDiskM=       26159 NBas2p=       33168
 Fully direct method using O(ONN) memory.
 IMap=   1   2   3   4   5   6   7   8   9  10  11  12  13  14  15  16  17  18  19  20
 IMap=  21  22  23  24  25  26  27  28  29  30  31  32
 JobTyp=1 Pass  1:  I=  10 to  17 NPSUse=  6 ParTrn=T ParDer=T DoDerP=T.
 JobTyp=1 Pass  2:  I=  18 to  25 NPSUse=  6 ParTrn=T ParDer=T DoDerP=T.
 JobTyp=1 Pass  3:  I=  26 to  32 NPSUse=  6 ParTrn=T ParDer=T DoDerP=T.
 Spin components of T(2) and E(2):
     alpha-alpha T2 =       0.6252586595D-01 E2=     -0.1711776517D+00
     alpha-beta  T2 =       0.3307572061D+00 E2=     -0.9617877316D+00
     beta-beta   T2 =       0.6252586595D-01 E2=     -0.1711776517D+00
 The integrals were generated   3 times.
 ANorm=    0.1206569077D+01
 E2 =    -0.1304143035D+01 EUMP2 =    -0.38387039014265D+03
 Leave Link  906 at Tue Dec 14 10:55:15 2021, MaxMem=  498073600 cpu:     668.6
 (Enter /apps/software//g09/l1002.exe)
 Minotr:  Closed shell wavefunction.
          Computing MP2/KS-MP2 derivatives.
          Using Z-Vector for PSCF gradient.
          Skipping F1 and S1 gradient terms here.
          Frozen-core window.
          Direct CPHF calculation.
          Differentiating once with respect to electric field.
                with respect to dipole field.
          Electric field/nuclear overlap derivatives assumed to be zero.
          Requested convergence is 1.0D-10 RMS, and 1.0D-09 maximum.
          NewPWx=F KeepS1=T KeepF1=T KeepIn=T MapXYZ=F SortEE=F KeepMc=T.
          MDV=     498073460 using IRadAn=       0.
          Solving linear equations separately, MaxMat=       0.
          There are     1 degrees of freedom in the 1st order CPHF.  IDoFFX=0.
 Petite list used in FoFDir.
 MinBra= 0 MaxBra= 2 Meth= 1.
 IRaf=       0 NMat=   1 IRICut=       1 DoRegI=T DoRafI=F ISym2E= 1 JSym2E=1.
 LinEq1:  Iter=  0 NonCon=     1 RMS=3.52D-03 Max=5.80D-02
 AX will form     1 AO Fock derivatives at one time.
 LinEq1:  Iter=  1 NonCon=     1 RMS=1.02D-03 Max=1.27D-02
 LinEq1:  Iter=  2 NonCon=     1 RMS=4.21D-04 Max=9.49D-03
 LinEq1:  Iter=  3 NonCon=     1 RMS=2.07D-04 Max=4.44D-03
 LinEq1:  Iter=  4 NonCon=     1 RMS=7.87D-05 Max=1.92D-03
 LinEq1:  Iter=  5 NonCon=     1 RMS=2.63D-05 Max=6.82D-04
 LinEq1:  Iter=  6 NonCon=     1 RMS=1.03D-05 Max=2.93D-04
 LinEq1:  Iter=  7 NonCon=     1 RMS=3.01D-06 Max=4.05D-05
 LinEq1:  Iter=  8 NonCon=     1 RMS=1.03D-06 Max=1.83D-05
 LinEq1:  Iter=  9 NonCon=     1 RMS=3.95D-07 Max=6.18D-06
 LinEq1:  Iter= 10 NonCon=     1 RMS=1.00D-07 Max=2.12D-06
 LinEq1:  Iter= 11 NonCon=     1 RMS=3.53D-08 Max=8.40D-07
 LinEq1:  Iter= 12 NonCon=     1 RMS=1.22D-08 Max=3.18D-07
 LinEq1:  Iter= 13 NonCon=     1 RMS=3.30D-09 Max=9.21D-08
 LinEq1:  Iter= 14 NonCon=     1 RMS=1.12D-09 Max=2.42D-08
 LinEq1:  Iter= 15 NonCon=     1 RMS=4.23D-10 Max=7.65D-09
 LinEq1:  Iter= 16 NonCon=     1 RMS=1.03D-10 Max=1.53D-09
 LinEq1:  Iter= 17 NonCon=     0 RMS=2.93D-11 Max=4.39D-10
 Linear equations converged to 1.000D-10 1.000D-09 after    17 iterations.
 End of Minotr Frequency-dependent properties file   721 does not exist.
 End of Minotr Frequency-dependent properties file   722 does not exist.
 Leave Link 1002 at Tue Dec 14 10:57:05 2021, MaxMem=  498073600 cpu:     661.8
 (Enter /apps/software//g09/l601.exe)
 Copying SCF densities to generalized density rwf, IOpCl= 0 IROHF=0.

 **********************************************************************

            Population analysis using the MP2 density.

 **********************************************************************

 Orbital symmetries:
       Occupied  (A) (A) (A) (A) (A) (A) (A) (A) (A) (A) (A) (A)
                 (A) (A) (A) (A) (A) (A) (A) (A) (A) (A) (A) (A)
                 (A) (A) (A) (A) (A) (A) (A) (A)
       Virtual   (A) (A) (A) (A) (A) (A) (A) (A) (A) (A) (A) (A)
                 (A) (A) (A) (A) (A) (A) (A) (A) (A) (A) (A) (A)
                 (A) (A) (A) (A) (A) (A) (A) (A) (A) (A) (A) (A)
                 (A) (A) (A) (A) (A) (A) (A) (A) (A) (A) (A) (A)
                 (A) (A) (A) (A) (A) (A) (A) (A) (A) (A) (A) (A)
                 (A) (A) (A) (A) (A) (A) (A) (A) (A) (A) (A) (A)
                 (A) (A) (A) (A) (A) (A) (A) (A) (A) (A) (A) (A)
                 (A) (A) (A) (A) (A) (A) (A) (A) (A) (A) (A) (A)
                 (A) (A) (A) (A) (A) (A) (A) (A) (A) (A) (A) (A)
                 (A) (A) (A) (A) (A) (A) (A) (A) (A) (A) (A) (A)
                 (A) (A) (A) (A) (A) (A) (A) (A) (A) (A) (A) (A)
                 (A) (A) (A) (A) (A) (A) (A) (A) (A) (A) (A) (A)
                 (A) (A) (A) (A) (A) (A) (A) (A) (A) (A) (A) (A)
                 (A) (A) (A) (A) (A) (A) (A) (A) (A) (A) (A) (A)
                 (A) (A) (A) (A) (A) (A) (A) (A) (A) (A) (A) (A)
                 (A) (A) (A) (A) (A) (A) (A) (A) (A) (A) (A) (A)
                 (A) (A) (A) (A) (A) (A) (A) (A) (A) (A) (A) (A)
                 (A) (A) (A) (A) (A) (A) (A) (A) (A) (A) (A) (A)
                 (A) (A) (A) (A) (A)
 The electronic state is 1-A.
 Alpha  occ. eigenvalues --  -20.54596 -11.34035 -11.25889 -11.25593 -11.25366
 Alpha  occ. eigenvalues --  -11.25017 -11.24985 -11.24725 -11.23812  -1.38949
 Alpha  occ. eigenvalues --   -1.16944  -1.05506  -1.03135  -0.99907  -0.86732
 Alpha  occ. eigenvalues --   -0.83966  -0.76476  -0.71312  -0.65820  -0.65211
 Alpha  occ. eigenvalues --   -0.62946  -0.60638  -0.60312  -0.60047  -0.55554
 Alpha  occ. eigenvalues --   -0.52626  -0.52497  -0.50583  -0.49262  -0.42031
 Alpha  occ. eigenvalues --   -0.35215  -0.34777
 Alpha virt. eigenvalues --    0.03420   0.04338   0.05089   0.06159   0.06231
 Alpha virt. eigenvalues --    0.07161   0.07636   0.08584   0.10298   0.10767
 Alpha virt. eigenvalues --    0.11112   0.12192   0.13973   0.14352   0.15414
 Alpha virt. eigenvalues --    0.15740   0.16334   0.16856   0.17451   0.17604
 Alpha virt. eigenvalues --    0.17734   0.18249   0.19090   0.19502   0.20285
 Alpha virt. eigenvalues --    0.21595   0.21610   0.22212   0.22311   0.22728
 Alpha virt. eigenvalues --    0.23585   0.23621   0.23923   0.25458   0.25917
 Alpha virt. eigenvalues --    0.27289   0.28347   0.28911   0.30428   0.30685
 Alpha virt. eigenvalues --    0.32173   0.33086   0.34085   0.35006   0.37158
 Alpha virt. eigenvalues --    0.37332   0.39979   0.40456   0.40669   0.41242
 Alpha virt. eigenvalues --    0.41819   0.43171   0.43494   0.44324   0.47103
 Alpha virt. eigenvalues --    0.48051   0.48487   0.50027   0.52154   0.55041
 Alpha virt. eigenvalues --    0.55869   0.59946   0.62889   0.66323   0.67423
 Alpha virt. eigenvalues --    0.70665   0.71106   0.71804   0.72960   0.73567
 Alpha virt. eigenvalues --    0.74670   0.75358   0.75575   0.76649   0.79664
 Alpha virt. eigenvalues --    0.81491   0.83207   0.84260   0.84933   0.85021
 Alpha virt. eigenvalues --    0.88706   0.89177   0.89326   0.91732   0.93615
 Alpha virt. eigenvalues --    0.94762   0.94955   0.96586   0.99352   1.01595
 Alpha virt. eigenvalues --    1.03671   1.04652   1.06084   1.07696   1.11717
 Alpha virt. eigenvalues --    1.11852   1.13917   1.14738   1.16858   1.17121
 Alpha virt. eigenvalues --    1.19033   1.22471   1.24469   1.25891   1.27375
 Alpha virt. eigenvalues --    1.28676   1.31189   1.33309   1.37482   1.38927
 Alpha virt. eigenvalues --    1.43950   1.45558   1.49639   1.53145   1.56353
 Alpha virt. eigenvalues --    1.68119   1.68586   1.70247   1.73686   1.75920
 Alpha virt. eigenvalues --    1.76958   1.78113   1.79359   1.81532   1.81826
 Alpha virt. eigenvalues --    1.82877   1.84224   1.88327   1.90042   1.93061
 Alpha virt. eigenvalues --    1.93893   1.96570   1.97334   2.01308   2.01968
 Alpha virt. eigenvalues --    2.04406   2.06166   2.09714   2.11370   2.14216
 Alpha virt. eigenvalues --    2.19285   2.21227   2.22265   2.23667   2.24078
 Alpha virt. eigenvalues --    2.26149   2.27177   2.32694   2.34853   2.34936
 Alpha virt. eigenvalues --    2.36743   2.41786   2.45405   2.49261   2.52289
 Alpha virt. eigenvalues --    2.60745   2.65803   2.65933   2.75584   2.76799
 Alpha virt. eigenvalues --    2.80907   2.81406   2.81980   2.82631   2.89571
 Alpha virt. eigenvalues --    2.91529   2.93884   2.96968   2.98369   3.00614
 Alpha virt. eigenvalues --    3.01995   3.02165   3.05130   3.05828   3.07880
 Alpha virt. eigenvalues --    3.11331   3.11391   3.18497   3.20800   3.22101
 Alpha virt. eigenvalues --    3.24480   3.27030   3.29283   3.31039   3.33043
 Alpha virt. eigenvalues --    3.34555   3.40837   3.47612   3.51600   3.62581
 Alpha virt. eigenvalues --    3.66147   3.75911   3.77098   3.79309   3.89007
 Alpha virt. eigenvalues --    3.92770   3.93554   4.02917   4.04109   4.17354
 Alpha virt. eigenvalues --    4.18076   4.28311   4.40327   4.44013   4.55357
 Alpha virt. eigenvalues --    4.56819   4.61414   4.79842   5.26693   5.62804
 Alpha virt. eigenvalues --    5.79643   6.31548  24.75320  24.99393  25.10757
 Alpha virt. eigenvalues --   25.11426  25.12879  25.21977  25.25487  25.34317
 Alpha virt. eigenvalues --   51.71836
          Condensed to atoms (all electrons):
              1          2          3          4          5          6
     1  C    8.375921  -0.395903  -0.732075   2.538711  -1.594276  -2.077341
     2  C   -0.395903   7.502246   0.306918  -1.365604   0.200531  -0.761557
     3  C   -0.732075   0.306918   8.144105  -0.264229  -2.147035   1.187854
     4  C    2.538711  -1.365604  -0.264229  17.456656  -3.719949  -7.593288
     5  C   -1.594276   0.200531  -2.147035  -3.719949  20.257366   0.215329
     6  C   -2.077341  -0.761557   1.187854  -7.593288   0.215329  15.323935
     7  C   -0.132422   0.817952   0.297267   0.805042  -9.628470  -1.600593
     8  O    0.021850  -0.007696  -0.045738  -0.423153   0.089963   0.368588
     9  C    0.069005  -0.160521  -0.505666  -0.824463   1.030730   0.045626
    10  H   -0.146810  -0.044168   0.068194   0.021050   0.111654   0.449916
    11  H    0.501384  -0.160765  -0.008853   0.102560  -0.035493  -0.114847
    12  H   -0.127408   0.525457  -0.084987  -0.078028   0.071167  -0.007093
    13  H   -0.004596  -0.158143   0.417633  -0.043065   0.008472   0.086440
    14  H    0.116151  -0.053393  -0.134423   0.621847  -0.138273  -0.083736
    15  H    0.012751  -0.002272  -0.019973  -0.011014  -0.134826   0.009561
    16  H   -0.007966   0.002827   0.007698  -0.013550   0.028269   0.011901
    17  H   -0.007950   0.002826   0.007661  -0.013217   0.027927   0.011715
              7          8          9         10         11         12
     1  C   -0.132422   0.021850   0.069005  -0.146810   0.501384  -0.127408
     2  C    0.817952  -0.007696  -0.160521  -0.044168  -0.160765   0.525457
     3  C    0.297267  -0.045738  -0.505666   0.068194  -0.008853  -0.084987
     4  C    0.805042  -0.423153  -0.824463   0.021050   0.102560  -0.078028
     5  C   -9.628470   0.089963   1.030730   0.111654  -0.035493   0.071167
     6  C   -1.600593   0.368588   0.045626   0.449916  -0.114847  -0.007093
     7  C   18.979783  -0.147820  -2.884303  -0.209618  -0.030089   0.001590
     8  O   -0.147820   8.278228   0.066640   0.008704   0.001411   0.000007
     9  C   -2.884303   0.066640   8.753301   0.003724   0.007416  -0.003261
    10  H   -0.209618   0.008704   0.003724   0.533207  -0.010692  -0.001345
    11  H   -0.030089   0.001411   0.007416  -0.010692   0.563316  -0.018003
    12  H    0.001590   0.000007  -0.003261  -0.001345  -0.018003   0.564205
    13  H   -0.056167   0.000426   0.006616   0.003545  -0.000052  -0.016885
    14  H   -0.060579  -0.003696   0.008656  -0.004017   0.003907  -0.002936
    15  H    0.110483  -0.006273   0.360086  -0.001910   0.000093  -0.000151
    16  H    0.026670   0.004544   0.279134   0.001390  -0.000229   0.000088
    17  H    0.026834   0.004497   0.279244   0.001386  -0.000229   0.000088
             13         14         15         16         17
     1  C   -0.004596   0.116151   0.012751  -0.007966  -0.007950
     2  C   -0.158143  -0.053393  -0.002272   0.002827   0.002826
     3  C    0.417633  -0.134423  -0.019973   0.007698   0.007661
     4  C   -0.043065   0.621847  -0.011014  -0.013550  -0.013217
     5  C    0.008472  -0.138273  -0.134826   0.028269   0.027927
     6  C    0.086440  -0.083736   0.009561   0.011901   0.011715
     7  C   -0.056167  -0.060579   0.110483   0.026670   0.026834
     8  O    0.000426  -0.003696  -0.006273   0.004544   0.004497
     9  C    0.006616   0.008656   0.360086   0.279134   0.279244
    10  H    0.003545  -0.004017  -0.001910   0.001390   0.001386
    11  H   -0.000052   0.003907   0.000093  -0.000229  -0.000229
    12  H   -0.016885  -0.002936  -0.000151   0.000088   0.000088
    13  H    0.567722  -0.015768  -0.000074   0.000506   0.000504
    14  H   -0.015768   0.593018   0.002972  -0.006246  -0.006236
    15  H   -0.000074   0.002972   0.492657  -0.015629  -0.015633
    16  H    0.000506  -0.006246  -0.015629   0.567789  -0.059531
    17  H    0.000504  -0.006236  -0.015633  -0.059531   0.567773
 Mulliken atomic charges:
              1
     1  C   -0.409027
     2  C   -0.248735
     3  C   -0.494348
     4  C   -1.196307
     5  C    1.356914
     6  C    0.527592
     7  C   -0.315558
     8  O   -0.210483
     9  C   -0.531965
    10  H    0.215789
    11  H    0.199163
    12  H    0.177496
    13  H    0.202884
    14  H    0.162754
    15  H    0.219153
    16  H    0.172336
    17  H    0.172341
 Sum of Mulliken atomic charges =   0.00000
 Mulliken charges with hydrogens summed into heavy atoms:
              1
     1  C   -0.209863
     2  C   -0.071239
     3  C   -0.291464
     4  C   -1.033553
     5  C    1.356914
     6  C    0.743381
     7  C   -0.315558
     8  O   -0.210483
     9  C    0.031866
 Sum of Mulliken charges with hydrogens summed into heavy atoms =   0.00000
 Electronic spatial extent (au):  <R**2>=           1239.5456
 Charge=              0.0000 electrons
 Dipole moment (field-independent basis, Debye):
    X=             -1.7552    Y=              2.3450    Z=              0.0000  Tot=              2.9292
 Quadrupole moment (field-independent basis, Debye-Ang):
   XX=            -52.2574   YY=            -51.9364   ZZ=            -56.7430
   XY=              6.2849   XZ=             -0.0003   YZ=              0.0002
 Traceless Quadrupole moment (field-independent basis, Debye-Ang):
   XX=              1.3881   YY=              1.7092   ZZ=             -3.0974
   XY=              6.2849   XZ=             -0.0003   YZ=              0.0002
 Octapole moment (field-independent basis, Debye-Ang**2):
  XXX=            -14.3635  YYY=              0.7534  ZZZ=              0.0006  XYY=             -9.4824
  XXY=             13.0331  XXZ=              0.0016  XZZ=             10.0712  YZZ=             -1.0869
  YYZ=              0.0002  XYZ=              0.0001
 Hexadecapole moment (field-independent basis, Debye-Ang**3):
 XXXX=          -1140.2782 YYYY=           -422.1057 ZZZZ=            -72.5661 XXXY=             26.2687
 XXXZ=             -0.0014 YYYX=              2.5812 YYYZ=             -0.0056 ZZZX=             -0.0004
 ZZZY=             -0.0052 XXYY=           -276.3209 XXZZ=           -222.4388 YYZZ=            -90.3151
 XXYZ=             -0.0014 YYXZ=             -0.0008 ZZXY=             -1.1622
 N-N= 4.010439941817D+02 E-N=-1.696602546740D+03  KE= 3.836795665411D+02
 No NMR shielding tensors so no spin-rotation constants.
 Leave Link  601 at Tue Dec 14 10:57:06 2021, MaxMem=  498073600 cpu:       2.1
 (Enter /apps/software//g09/l9999.exe)
 1\1\GINC-DLT01\SP\RMP2-FC\6-311++G(d,p)\C8H8O1\ITAMAR\14-Dec-2021\0\\#
 P MP2/6-311++G** DENSITY=MP2\\X=COCH3 - In the original geometry missi
 ng oxygen\\0,1\C,0,-1.944913,1.106828,0.000034\C,0,-2.518174,-0.166443
 ,-0.000008\C,0,-1.702924,-1.296581,0.00002\C,0,-0.316881,-1.155869,0.0
 0008\C,0,0.267483,0.117573,0.000124\C,0,-0.562807,1.247347,0.000101\C,
 0,1.754883,0.324361,0.000215\O,0,2.224506,1.446837,0.000041\C,0,2.6641
 15,-0.890681,-0.000097\H,0,-0.098892,2.226084,0.00014\H,0,-2.578422,1.
 986655,0.000015\H,0,-3.596942,-0.276371,-0.000058\H,0,-2.145375,-2.286
 246,-0.000008\H,0,0.303504,-2.043803,0.000103\H,0,3.698939,-0.552677,-
 0.000236\H,0,2.485698,-1.512554,0.882014\H,0,2.485393,-1.512363,-0.882
 282\\Version=EM64L-G09RevA.02\State=1-A\HF=-382.5662471\MP2=-383.87039
 01\RMSD=6.919e-09\Dipole=-0.6529285,-0.9496064,-0.0000087\Quadrupole=1
 .4076043,0.8952131,-2.3028174,-4.6671327,0.0001896,0.0001778\PG=C01 [X
 (C8H8O1)]\\@


 FROM THE ASHES OF OUR DESPAIR GROW THE FLOWERS OF TOMORROW.
 Job cpu time:  0 days  0 hours 31 minutes 53.1 seconds.
 File lengths (MBytes):  RWF=     40 Int=      0 D2E=      0 Chk=      6 Scr=      1
 Normal termination of Gaussian 09 at Tue Dec 14 10:57:06 2021.
