Penta-Nh2p                                                              
SP        RMP2-FC                                                     6-311++G(d,p)       
Number of atoms                            I               12
Info1-9                                    I   N=           9
          30          21           0           0           0         110
           1           2           1
Charge                                     I                1
Multiplicity                               I                1
Number of electrons                        I               42
Number of alpha electrons                  I               21
Number of beta electrons                   I               21
Number of basis functions                  I              174
Number of independent functions            I              174
Number of point charges in /Mol/           I                0
Number of translation vectors              I                0
Atomic numbers                             I   N=          12
           6           6           1           6           1           6
           1           6           1           7           1           1
Nuclear charges                            R   N=          12
  6.00000000E+00  6.00000000E+00  1.00000000E+00  6.00000000E+00  1.00000000E+00
  6.00000000E+00  1.00000000E+00  6.00000000E+00  1.00000000E+00  7.00000000E+00
  1.00000000E+00  1.00000000E+00
Current cartesian coordinates              R   N=          36
  9.79418969E-17  1.31501884E+00 -1.61043361E-16  2.27270748E+00 -2.95606080E-01
  3.14557191E-16  4.19669057E+00  3.83519919E-01  4.67033193E-16  1.43191730E+00
 -2.68522525E+00  5.04223112E-16  2.57277142E+00 -4.38045888E+00  8.51558492E-16
 -2.27263189E+00 -2.96093629E-01 -2.42085632E-16 -4.19661120E+00  3.83051267E-01
 -5.60901374E-16 -1.43146188E+00 -2.68549737E+00  1.53556456E-16 -2.57187191E+00
 -4.38101823E+00  2.21523115E-16 -4.23298654E-04  3.76273575E+00 -4.60854061E-16
  1.63423516E+00  4.77037363E+00 -3.84044963E-16 -1.63543514E+00  4.76980293E+00
 -7.84436640E-16
Force Field                                I                0
Int Atom Types                             I   N=          12
           0           0           0           0           0           0
           0           0           0           0           0           0
MM charges                                 R   N=          12
  0.00000000E+00  0.00000000E+00  0.00000000E+00  0.00000000E+00  0.00000000E+00
  0.00000000E+00  0.00000000E+00  0.00000000E+00  0.00000000E+00  0.00000000E+00
  0.00000000E+00  0.00000000E+00
Integer atomic weights                     I   N=          12
          12          12           1          12           1          12
           1          12           1          14           1           1
Real atomic weights                        R   N=          12
  1.20000000E+01  1.20000000E+01  1.00782504E+00  1.20000000E+01  1.00782504E+00
  1.20000000E+01  1.00782504E+00  1.20000000E+01  1.00782504E+00  1.40030740E+01
  1.00782504E+00  1.00782504E+00
Atom fragment info                         I   N=          12
           0           0           0           0           0           0
           0           0           0           0           0           0
Atom residue num                           I   N=          12
           0           0           0           0           0           0
           0           0           0           0           0           0
Nuclear spins                              I   N=          12
           0           0           1           0           1           0
           1           0           1           2           1           1
Nuclear ZEff                               R   N=          12
 -3.60000000E+00 -3.60000000E+00 -1.00000000E+00 -3.60000000E+00 -1.00000000E+00
 -3.60000000E+00 -1.00000000E+00 -3.60000000E+00 -1.00000000E+00 -4.55000000E+00
 -1.00000000E+00 -1.00000000E+00
Nuclear QMom                               R   N=          12
  0.00000000E+00  0.00000000E+00  0.00000000E+00  0.00000000E+00  0.00000000E+00
  0.00000000E+00  0.00000000E+00  0.00000000E+00  0.00000000E+00  2.04400000E+00
  0.00000000E+00  0.00000000E+00
Nuclear GFac                               R   N=          12
  0.00000000E+00  0.00000000E+00  2.79284600E+00  0.00000000E+00  2.79284600E+00
  0.00000000E+00  2.79284600E+00  0.00000000E+00  2.79284600E+00  4.03761000E-01
  2.79284600E+00  2.79284600E+00
MicOpt                                     I   N=          12
          -1          -1          -1          -1          -1          -1
          -1          -1          -1          -1          -1          -1
Number of contracted shells                I               66
Number of primitive shells                 I              120
Pure/Cartesian d shells                    I                0
Pure/Cartesian f shells                    I                0
Highest angular momentum                   I                2
Largest degree of contraction              I                6
Shell types                                I   N=          66
           0          -1          -1          -1          -1          -2
           0          -1          -1          -1          -1          -2
           0           0           0           0           1           0
          -1          -1          -1          -1          -2           0
           0           0           0           1           0          -1
          -1          -1          -1          -2           0           0
           0           0           1           0          -1          -1
          -1          -1          -2           0           0           0
           0           1           0          -1          -1          -1
          -1          -2           0           0           0           0
           1           0           0           0           0           1
Number of primitives per shell             I   N=          66
           6           3           1           1           1           1
           6           3           1           1           1           1
           3           1           1           1           1           6
           3           1           1           1           1           3
           1           1           1           1           6           3
           1           1           1           1           3           1
           1           1           1           6           3           1
           1           1           1           3           1           1
           1           1           6           3           1           1
           1           1           3           1           1           1
           1           3           1           1           1           1
Shell to atom map                          I   N=          66
           1           1           1           1           1           1
           2           2           2           2           2           2
           3           3           3           3           3           4
           4           4           4           4           4           5
           5           5           5           5           6           6
           6           6           6           6           7           7
           7           7           7           8           8           8
           8           8           8           9           9           9
           9           9          10          10          10          10
          10          10          11          11          11          11
          11          12          12          12          12          12
Primitive exponents                        R   N=         120
  4.56324000E+03  6.82024000E+02  1.54973000E+02  4.44553000E+01  1.30290000E+01
  1.82773000E+00  2.09642000E+01  4.80331000E+00  1.45933000E+00  4.83456000E-01
  1.45585000E-01  4.38000000E-02  6.26000000E-01  4.56324000E+03  6.82024000E+02
  1.54973000E+02  4.44553000E+01  1.30290000E+01  1.82773000E+00  2.09642000E+01
  4.80331000E+00  1.45933000E+00  4.83456000E-01  1.45585000E-01  4.38000000E-02
  6.26000000E-01  3.38650000E+01  5.09479000E+00  1.15879000E+00  3.25840000E-01
  1.02741000E-01  3.60000000E-02  7.50000000E-01  4.56324000E+03  6.82024000E+02
  1.54973000E+02  4.44553000E+01  1.30290000E+01  1.82773000E+00  2.09642000E+01
  4.80331000E+00  1.45933000E+00  4.83456000E-01  1.45585000E-01  4.38000000E-02
  6.26000000E-01  3.38650000E+01  5.09479000E+00  1.15879000E+00  3.25840000E-01
  1.02741000E-01  3.60000000E-02  7.50000000E-01  4.56324000E+03  6.82024000E+02
  1.54973000E+02  4.44553000E+01  1.30290000E+01  1.82773000E+00  2.09642000E+01
  4.80331000E+00  1.45933000E+00  4.83456000E-01  1.45585000E-01  4.38000000E-02
  6.26000000E-01  3.38650000E+01  5.09479000E+00  1.15879000E+00  3.25840000E-01
  1.02741000E-01  3.60000000E-02  7.50000000E-01  4.56324000E+03  6.82024000E+02
  1.54973000E+02  4.44553000E+01  1.30290000E+01  1.82773000E+00  2.09642000E+01
  4.80331000E+00  1.45933000E+00  4.83456000E-01  1.45585000E-01  4.38000000E-02
  6.26000000E-01  3.38650000E+01  5.09479000E+00  1.15879000E+00  3.25840000E-01
  1.02741000E-01  3.60000000E-02  7.50000000E-01  6.29348000E+03  9.49044000E+02
  2.18776000E+02  6.36916000E+01  1.88282000E+01  2.72023000E+00  3.06331000E+01
  7.02614000E+00  2.11205000E+00  6.84009000E-01  2.00878000E-01  6.39000000E-02
  9.13000000E-01  3.38650000E+01  5.09479000E+00  1.15879000E+00  3.25840000E-01
  1.02741000E-01  3.60000000E-02  7.50000000E-01  3.38650000E+01  5.09479000E+00
  1.15879000E+00  3.25840000E-01  1.02741000E-01  3.60000000E-02  7.50000000E-01
Contraction coefficients                   R   N=         120
  1.96665025E-03  1.52306019E-02  7.61269097E-02  2.60801033E-01  6.16462078E-01
  2.21006028E-01  1.14660081E-01  9.19999648E-01 -3.03068213E-03  1.00000000E+00
  1.00000000E+00  1.00000000E+00  1.00000000E+00  1.96665025E-03  1.52306019E-02
  7.61269097E-02  2.60801033E-01  6.16462078E-01  2.21006028E-01  1.14660081E-01
  9.19999648E-01 -3.03068213E-03  1.00000000E+00  1.00000000E+00  1.00000000E+00
  1.00000000E+00  2.54938145E-02  1.90373109E-01  8.52161486E-01  1.00000000E+00
  1.00000000E+00  1.00000000E+00  1.00000000E+00  1.96665025E-03  1.52306019E-02
  7.61269097E-02  2.60801033E-01  6.16462078E-01  2.21006028E-01  1.14660081E-01
  9.19999648E-01 -3.03068213E-03  1.00000000E+00  1.00000000E+00  1.00000000E+00
  1.00000000E+00  2.54938145E-02  1.90373109E-01  8.52161486E-01  1.00000000E+00
  1.00000000E+00  1.00000000E+00  1.00000000E+00  1.96665025E-03  1.52306019E-02
  7.61269097E-02  2.60801033E-01  6.16462078E-01  2.21006028E-01  1.14660081E-01
  9.19999648E-01 -3.03068213E-03  1.00000000E+00  1.00000000E+00  1.00000000E+00
  1.00000000E+00  2.54938145E-02  1.90373109E-01  8.52161486E-01  1.00000000E+00
  1.00000000E+00  1.00000000E+00  1.00000000E+00  1.96665025E-03  1.52306019E-02
  7.61269097E-02  2.60801033E-01  6.16462078E-01  2.21006028E-01  1.14660081E-01
  9.19999648E-01 -3.03068213E-03  1.00000000E+00  1.00000000E+00  1.00000000E+00
  1.00000000E+00  2.54938145E-02  1.90373109E-01  8.52161486E-01  1.00000000E+00
  1.00000000E+00  1.00000000E+00  1.00000000E+00  1.96978815E-03  1.49612859E-02
  7.35005308E-02  2.48936766E-01  6.02459433E-01  2.56201759E-01  1.11906080E-01
  9.21666655E-01 -2.56919183E-03  1.00000000E+00  1.00000000E+00  1.00000000E+00
  1.00000000E+00  2.54938145E-02  1.90373109E-01  8.52161486E-01  1.00000000E+00
  1.00000000E+00  1.00000000E+00  1.00000000E+00  2.54938145E-02  1.90373109E-01
  8.52161486E-01  1.00000000E+00  1.00000000E+00  1.00000000E+00  1.00000000E+00
P(S=P) Contraction coefficients            R   N=         120
  0.00000000E+00  0.00000000E+00  0.00000000E+00  0.00000000E+00  0.00000000E+00
  0.00000000E+00  4.02486927E-02  2.37593957E-01  8.15853851E-01  1.00000000E+00
  1.00000000E+00  1.00000000E+00  0.00000000E+00  0.00000000E+00  0.00000000E+00
  0.00000000E+00  0.00000000E+00  0.00000000E+00  0.00000000E+00  4.02486927E-02
  2.37593957E-01  8.15853851E-01  1.00000000E+00  1.00000000E+00  1.00000000E+00
  0.00000000E+00  0.00000000E+00  0.00000000E+00  0.00000000E+00  0.00000000E+00
  0.00000000E+00  0.00000000E+00  0.00000000E+00  0.00000000E+00  0.00000000E+00
  0.00000000E+00  0.00000000E+00  0.00000000E+00  0.00000000E+00  4.02486927E-02
  2.37593957E-01  8.15853851E-01  1.00000000E+00  1.00000000E+00  1.00000000E+00
  0.00000000E+00  0.00000000E+00  0.00000000E+00  0.00000000E+00  0.00000000E+00
  0.00000000E+00  0.00000000E+00  0.00000000E+00  0.00000000E+00  0.00000000E+00
  0.00000000E+00  0.00000000E+00  0.00000000E+00  0.00000000E+00  4.02486927E-02
  2.37593957E-01  8.15853851E-01  1.00000000E+00  1.00000000E+00  1.00000000E+00
  0.00000000E+00  0.00000000E+00  0.00000000E+00  0.00000000E+00  0.00000000E+00
  0.00000000E+00  0.00000000E+00  0.00000000E+00  0.00000000E+00  0.00000000E+00
  0.00000000E+00  0.00000000E+00  0.00000000E+00  0.00000000E+00  4.02486927E-02
  2.37593957E-01  8.15853851E-01  1.00000000E+00  1.00000000E+00  1.00000000E+00
  0.00000000E+00  0.00000000E+00  0.00000000E+00  0.00000000E+00  0.00000000E+00
  0.00000000E+00  0.00000000E+00  0.00000000E+00  0.00000000E+00  0.00000000E+00
  0.00000000E+00  0.00000000E+00  0.00000000E+00  0.00000000E+00  3.83119186E-02
  2.37403116E-01  8.17592398E-01  1.00000000E+00  1.00000000E+00  1.00000000E+00
  0.00000000E+00  0.00000000E+00  0.00000000E+00  0.00000000E+00  0.00000000E+00
  0.00000000E+00  0.00000000E+00  0.00000000E+00  0.00000000E+00  0.00000000E+00
  0.00000000E+00  0.00000000E+00  0.00000000E+00  0.00000000E+00  0.00000000E+00
Coordinates of each shell                  R   N=         198
 -1.97242133E-32  1.31501884E+00  0.00000000E+00 -1.97242133E-32  1.31501884E+00
  0.00000000E+00 -1.97242133E-32  1.31501884E+00  0.00000000E+00 -1.97242133E-32
  1.31501884E+00  0.00000000E+00 -1.97242133E-32  1.31501884E+00  0.00000000E+00
 -1.97242133E-32  1.31501884E+00  0.00000000E+00  2.27270743E+00 -2.95606155E-01
  0.00000000E+00  2.27270743E+00 -2.95606155E-01  0.00000000E+00  2.27270743E+00
 -2.95606155E-01  0.00000000E+00  2.27270743E+00 -2.95606155E-01  0.00000000E+00
  2.27270743E+00 -2.95606155E-01  0.00000000E+00  2.27270743E+00 -2.95606155E-01
  0.00000000E+00  4.19669054E+00  3.83519778E-01  0.00000000E+00  4.19669054E+00
  3.83519778E-01  0.00000000E+00  4.19669054E+00  3.83519778E-01  0.00000000E+00
  4.19669054E+00  3.83519778E-01  0.00000000E+00  4.19669054E+00  3.83519778E-01
  0.00000000E+00  1.43191717E+00 -2.68522529E+00  0.00000000E+00  1.43191717E+00
 -2.68522529E+00  0.00000000E+00  1.43191717E+00 -2.68522529E+00  0.00000000E+00
  1.43191717E+00 -2.68522529E+00  0.00000000E+00  1.43191717E+00 -2.68522529E+00
  0.00000000E+00  1.43191717E+00 -2.68522529E+00  0.00000000E+00  2.57277123E+00
 -4.38045896E+00  0.00000000E+00  2.57277123E+00 -4.38045896E+00  0.00000000E+00
  2.57277123E+00 -4.38045896E+00  0.00000000E+00  2.57277123E+00 -4.38045896E+00
  0.00000000E+00  2.57277123E+00 -4.38045896E+00  0.00000000E+00 -2.27263194E+00
 -2.96093553E-01  0.00000000E+00 -2.27263194E+00 -2.96093553E-01  0.00000000E+00
 -2.27263194E+00 -2.96093553E-01  0.00000000E+00 -2.27263194E+00 -2.96093553E-01
  0.00000000E+00 -2.27263194E+00 -2.96093553E-01  0.00000000E+00 -2.27263194E+00
 -2.96093553E-01  0.00000000E+00 -4.19661123E+00  3.83051407E-01  0.00000000E+00
 -4.19661123E+00  3.83051407E-01  0.00000000E+00 -4.19661123E+00  3.83051407E-01
  0.00000000E+00 -4.19661123E+00  3.83051407E-01  0.00000000E+00 -4.19661123E+00
  3.83051407E-01  0.00000000E+00 -1.43146201E+00 -2.68549732E+00  0.00000000E+00
 -1.43146201E+00 -2.68549732E+00  0.00000000E+00 -1.43146201E+00 -2.68549732E+00
  0.00000000E+00 -1.43146201E+00 -2.68549732E+00  0.00000000E+00 -1.43146201E+00
 -2.68549732E+00  0.00000000E+00 -1.43146201E+00 -2.68549732E+00  0.00000000E+00
 -2.57187210E+00 -4.38101815E+00  0.00000000E+00 -2.57187210E+00 -4.38101815E+00
  0.00000000E+00 -2.57187210E+00 -4.38101815E+00  0.00000000E+00 -2.57187210E+00
 -4.38101815E+00  0.00000000E+00 -2.57187210E+00 -4.38101815E+00  0.00000000E+00
 -4.23216853E-04  3.76273575E+00  0.00000000E+00 -4.23216853E-04  3.76273575E+00
  0.00000000E+00 -4.23216853E-04  3.76273575E+00  0.00000000E+00 -4.23216853E-04
  3.76273575E+00  0.00000000E+00 -4.23216853E-04  3.76273575E+00  0.00000000E+00
 -4.23216853E-04  3.76273575E+00  0.00000000E+00  1.63423528E+00  4.77037357E+00
  0.00000000E+00  1.63423528E+00  4.77037357E+00  0.00000000E+00  1.63423528E+00
  4.77037357E+00  0.00000000E+00  1.63423528E+00  4.77037357E+00  0.00000000E+00
  1.63423528E+00  4.77037357E+00  0.00000000E+00 -1.63543502E+00  4.76980298E+00
  0.00000000E+00 -1.63543502E+00  4.76980298E+00  0.00000000E+00 -1.63543502E+00
  4.76980298E+00  0.00000000E+00 -1.63543502E+00  4.76980298E+00  0.00000000E+00
 -1.63543502E+00  4.76980298E+00  0.00000000E+00
Constraint Structure                       R   N=          36
 -1.97242133E-32  1.31501884E+00  0.00000000E+00  2.27270743E+00 -2.95606155E-01
  0.00000000E+00  4.19669054E+00  3.83519778E-01  0.00000000E+00  1.43191717E+00
 -2.68522529E+00  0.00000000E+00  2.57277123E+00 -4.38045896E+00  0.00000000E+00
 -2.27263194E+00 -2.96093553E-01  0.00000000E+00 -4.19661123E+00  3.83051407E-01
  0.00000000E+00 -1.43146201E+00 -2.68549732E+00  0.00000000E+00 -2.57187210E+00
 -4.38101815E+00  0.00000000E+00 -4.23216853E-04  3.76273575E+00  0.00000000E+00
  1.63423528E+00  4.77037357E+00  0.00000000E+00 -1.63543502E+00  4.76980298E+00
  0.00000000E+00
Num ILSW                                   I              100
ILSW                                       I   N=         100
           0           0           0           0           2           0
           0           0           0           0           0          -1
           0           0           0           0           0           0
           0           0           0           0           0           0
           1           0           0           0           0           0
           0           0      100000           0          -1           0
           0           0           0           0           0           0
           0           0           0           1           0           0
           0           0           1           0           0           0
           0           0           4          40           0           0
           0           0           0           0           0           0
           0           0           0           0           0           0
           0           0           0           0           0           0
           0           0           0           0           0           0
           0           0           0           0           0           0
           0           0           0           0           0           0
           0           0           0           0
Num RLSW                                   I               40
RLSW                                       R   N=          40
  1.00000000E+00  1.00000000E+00  1.00000000E+00  1.00000000E+00  1.00000000E+00
  0.00000000E+00  0.00000000E+00  1.00000000E+00  0.00000000E+00  0.00000000E+00
  0.00000000E+00  0.00000000E+00  1.00000000E+00  0.00000000E+00  0.00000000E+00
  0.00000000E+00  0.00000000E+00  1.00000000E+00  0.00000000E+00  0.00000000E+00
  0.00000000E+00  0.00000000E+00  1.00000000E+00  0.00000000E+00  0.00000000E+00
  0.00000000E+00  0.00000000E+00  1.00000000E+00  0.00000000E+00  0.00000000E+00
  0.00000000E+00  0.00000000E+00  0.00000000E+00  0.00000000E+00  0.00000000E+00
  0.00000000E+00  0.00000000E+00  0.00000000E+00  1.00000000E+00  1.00000000E+00
MxBond                                     I                3
NBond                                      I   N=          12
           3           3           1           3           1           3
           1           3           1           3           1           1
IBond                                      I   N=          36
           2           6          10           1           3           4
           2           0           0           2           5           8
           4           0           0           1           7           8
           6           0           0           4           6           9
           8           0           0           1          11          12
          10           0           0          10           0           0
RBond                                      R   N=          36
  1.00000000E+00  1.00000000E+00  2.00000000E+00  1.00000000E+00  1.00000000E+00
  2.00000000E+00  1.00000000E+00  0.00000000E+00  0.00000000E+00  2.00000000E+00
  1.00000000E+00  1.00000000E+00  1.00000000E+00  0.00000000E+00  0.00000000E+00
  1.00000000E+00  1.00000000E+00  2.00000000E+00  1.00000000E+00  0.00000000E+00
  0.00000000E+00  1.00000000E+00  2.00000000E+00  1.00000000E+00  1.00000000E+00
  0.00000000E+00  0.00000000E+00  2.00000000E+00  1.00000000E+00  1.00000000E+00
  1.00000000E+00  0.00000000E+00  0.00000000E+00  1.00000000E+00  0.00000000E+00
  0.00000000E+00
Virial Ratio                               R      2.001330873088371E+00
SCF Energy                                 R     -2.470753632364428E+02
MP2 Energy                                 R     -2.479123219315629E+02
Total Energy                               R     -2.479123219315629E+02
Post-SCF wavefunction norm                 R      1.136376808550701E+00
RMS Density                                R      5.052310097727080E-09
External E-field                           R   N=          35
  0.00000000E+00  0.00000000E+00  0.00000000E+00  0.00000000E+00  0.00000000E+00
  0.00000000E+00  0.00000000E+00  0.00000000E+00  0.00000000E+00  0.00000000E+00
  0.00000000E+00  0.00000000E+00  0.00000000E+00  0.00000000E+00  0.00000000E+00
  0.00000000E+00  0.00000000E+00  0.00000000E+00  0.00000000E+00  0.00000000E+00
  0.00000000E+00  0.00000000E+00  0.00000000E+00  0.00000000E+00  0.00000000E+00
  0.00000000E+00  0.00000000E+00  0.00000000E+00  0.00000000E+00  0.00000000E+00
  0.00000000E+00  0.00000000E+00  0.00000000E+00  0.00000000E+00  0.00000000E+00
IOpCl                                      I                0
IROHF                                      I                0
Alpha Orbital Energies                     R   N=         174
 -1.58473940E+01 -1.15588427E+01 -1.14604037E+01 -1.14597577E+01 -1.14314913E+01
 -1.14314571E+01 -1.50514864E+00 -1.35980922E+00 -1.19307319E+00 -1.13257787E+00
 -9.95940989E-01 -9.95882200E-01 -9.19408764E-01 -9.03891694E-01 -8.07355153E-01
 -7.80697089E-01 -7.65467687E-01 -7.29646704E-01 -7.25696270E-01 -6.34074468E-01
 -5.26159406E-01 -1.71171418E-01 -9.10892062E-02 -6.59720900E-02 -6.51990880E-02
 -4.31945032E-02 -4.07994284E-02 -2.38699810E-02 -2.06625425E-02 -1.01133987E-02
 -7.05513087E-04  5.42634269E-03  1.29473187E-02  2.25316334E-02  3.30330613E-02
  3.43740685E-02  4.41928228E-02  5.29665346E-02  6.17406438E-02  6.19257543E-02
  7.46510731E-02  8.21209892E-02  8.24366514E-02  8.63615618E-02  9.20893368E-02
  1.05781502E-01  1.10806941E-01  1.25092562E-01  1.30871278E-01  1.32385591E-01
  1.39945236E-01  1.49659451E-01  1.56775320E-01  1.87695842E-01  1.93394816E-01
  2.15790570E-01  2.19145113E-01  2.37648153E-01  2.38092863E-01  2.86468312E-01
  2.89625001E-01  3.11668422E-01  3.46759764E-01  4.04205816E-01  4.38887380E-01
  4.54590831E-01  4.81300848E-01  5.28438455E-01  5.31802906E-01  5.38835602E-01
  5.54077195E-01  5.64144997E-01  5.74605143E-01  6.09297858E-01  6.19858906E-01
  6.39394912E-01  6.50301477E-01  6.98999781E-01  7.00355450E-01  7.13143945E-01
  7.40528651E-01  7.93927759E-01  8.17894729E-01  8.25685377E-01  8.35574567E-01
  8.48749200E-01  8.60112964E-01  8.73974858E-01  8.92419249E-01  9.10625203E-01
  9.20843224E-01  9.36973970E-01  9.88456273E-01  1.01462586E+00  1.03620008E+00
  1.05805690E+00  1.11788695E+00  1.16563908E+00  1.19975613E+00  1.20739572E+00
  1.21738359E+00  1.32301159E+00  1.39032015E+00  1.52280671E+00  1.55739684E+00
  1.60142410E+00  1.61325995E+00  1.61563063E+00  1.62574584E+00  1.64457451E+00
  1.68702191E+00  1.74261486E+00  1.78897073E+00  1.79544418E+00  1.82901834E+00
  1.83117722E+00  1.87929378E+00  1.91345596E+00  1.92434225E+00  1.96982274E+00
  2.00498915E+00  2.02303419E+00  2.05023169E+00  2.05260093E+00  2.17073792E+00
  2.21370096E+00  2.21372096E+00  2.21838039E+00  2.25253859E+00  2.37390851E+00
  2.45613837E+00  2.48415836E+00  2.54095958E+00  2.56593456E+00  2.62839914E+00
  2.64835042E+00  2.65823925E+00  2.73421824E+00  2.75779510E+00  2.83255178E+00
  2.83543848E+00  2.86683937E+00  2.87981966E+00  2.88445701E+00  2.91107015E+00
  2.97743694E+00  2.98404805E+00  3.01063047E+00  3.03170655E+00  3.15483646E+00
  3.15689099E+00  3.18083339E+00  3.29947963E+00  3.30370936E+00  3.38877115E+00
  3.42871901E+00  3.53676322E+00  3.69399463E+00  3.70982356E+00  3.72145790E+00
  4.10811664E+00  4.13281679E+00  4.24319906E+00  4.26504918E+00  4.28526022E+00
  4.83378381E+00  4.98582156E+00  5.28387177E+00  2.46142172E+01  2.47348487E+01
  2.48171182E+01  2.52007687E+01  2.52261864E+01  3.68836930E+01
Alpha MO coefficients                      R   N=       30276
  2.95417216E-05 -2.44061511E-05 -2.59890453E-08  1.53220085E-04  0.00000000E+00
  3.09560619E-04 -2.28158383E-09  5.53729335E-05  0.00000000E+00  1.30927118E-04
 -5.47087230E-07  1.85245938E-03  0.00000000E+00 -6.19811819E-03 -3.46406967E-07
  1.34575322E-03  0.00000000E+00  5.14334789E-05  0.00000000E+00  0.00000000E+00
 -6.22228115E-05 -9.99473477E-09  6.25866825E-08  2.60239828E-06  8.46474530E-06
 -1.02222745E-05  0.00000000E+00 -2.44126037E-05 -4.07958975E-05  3.15673683E-05
  0.00000000E+00  7.49907065E-04 -5.87522393E-04 -4.33224564E-04  0.00000000E+00
  4.45608664E-03 -1.18830796E-03 -4.97394804E-04  0.00000000E+00 -5.02802901E-06
  0.00000000E+00  0.00000000E+00 -3.33054090E-06 -9.03912738E-06 -1.13006968E-05
  1.40353848E-04  2.52847710E-04  3.79925638E-04 -1.48128174E-05 -3.40469194E-06
  0.00000000E+00 -7.70554979E-07  1.27811389E-06  1.77684778E-06  1.12324527E-06
  0.00000000E+00 -2.53423229E-05 -5.79588270E-06 -8.25529055E-06  0.00000000E+00
 -5.18901037E-04 -1.43340149E-04 -7.79225799E-05  0.00000000E+00 -2.12670542E-03
 -6.29180283E-05 -3.79398399E-04  0.00000000E+00 -1.08303792E-05  0.00000000E+00
  0.00000000E+00 -5.38614889E-06 -5.44439119E-06 -8.92135122E-06  5.25237886E-05
  8.02241265E-05  1.76129065E-06  3.67642407E-06  7.69099701E-06  0.00000000E+00
  6.27658182E-08  2.60206560E-06 -8.46333398E-06 -1.02248857E-05  0.00000000E+00
 -2.44090829E-05  4.07831856E-05  3.15757221E-05  0.00000000E+00  7.49371740E-04
  5.87349637E-04 -4.33358007E-04  0.00000000E+00  4.45526897E-03  1.18808497E-03
 -4.97625383E-04  0.00000000E+00 -5.02438286E-06  0.00000000E+00  0.00000000E+00
 -3.32414163E-06  9.04221757E-06 -1.13011833E-05  1.40358404E-04  2.52812557E-04
  3.79918320E-04  1.48089691E-05 -3.40679339E-06  0.00000000E+00 -7.70374675E-07
  1.27801131E-06 -1.77580445E-06  1.12226581E-06  0.00000000E+00 -2.53418500E-05
  5.78894269E-06 -8.24678076E-06  0.00000000E+00 -5.18908610E-04  1.43441416E-04
 -7.78895470E-05  0.00000000E+00 -2.12665166E-03  6.32753888E-05 -3.79458719E-04
  0.00000000E+00 -1.08304688E-05  0.00000000E+00  0.00000000E+00 -5.39203453E-06
  5.43831345E-06 -8.92155934E-06  5.25338605E-05  8.02397494E-05  1.79434446E-06
 -3.67999650E-06  7.69175467E-06  0.00000000E+00  5.57590067E-01  4.68180433E-01
  2.36683686E-08 -1.50897371E-04  0.00000000E+00  5.51044261E-03  2.01939956E-08
 -1.11350364E-04  0.00000000E+00 -2.10683086E-03 -5.34187808E-08  6.67265002E-04
  0.00000000E+00  6.66847942E-04 -1.17926428E-08 -3.69277435E-04  0.00000000E+00
 -1.23969789E-04  0.00000000E+00  0.00000000E+00 -7.02417266E-05 -1.49658512E-08
  2.50240101E-04 -3.12582083E-05  8.50296359E-05  1.26705574E-05  1.86227484E-05
 -3.04668416E-05  0.00000000E+00  2.50236173E-04 -3.12012591E-05  8.49524864E-05
  1.26413858E-05 -1.86055258E-05 -3.04805343E-05  0.00000000E+00  5.63457742E-01
  4.66632565E-01 -1.62971118E-07  8.63045608E-04  0.00000000E+00  3.73656806E-03
  2.86705979E-07 -5.09148183E-04  0.00000000E+00 -3.78626959E-04 -5.85774651E-07
  1.71354280E-03  0.00000000E+00 -1.14361075E-03  1.46748818E-06 -1.28886130E-03
  0.00000000E+00 -5.26966831E-04  0.00000000E+00  0.00000000E+00 -1.23923331E-04
 -2.53460904E-07  1.69323040E-03  1.35770371E-03 -1.30155068E-04  7.68654490E-05
  0.00000000E+00  2.37305533E-04 -1.36108572E-04  2.18662765E-04  0.00000000E+00
  5.07420547E-04 -4.86887147E-04 -4.24296503E-04  0.00000000E+00  2.42913238E-04
 -2.11988061E-04  2.57765246E-04  0.00000000E+00  4.56641823E-05  0.00000000E+00
  0.00000000E+00 -5.38925256E-05 -1.48237134E-04  5.16886515E-06  1.85042381E-04
  1.55647780E-04  3.25586737E-06 -5.62202088E-05 -1.11853742E-06  0.00000000E+00
  1.11972968E-05  1.52438492E-06  6.81089371E-06 -7.62611364E-06  0.00000000E+00
  3.09595791E-05 -3.06436331E-05  8.21557232E-05  0.00000000E+00 -4.49342116E-04
 -1.11580418E-04 -1.10703888E-04  0.00000000E+00 -1.92528862E-04  2.58680385E-04
 -1.80289032E-04  0.00000000E+00  1.78222519E-06  0.00000000E+00  0.00000000E+00
 -3.95874859E-05  2.32558679E-06 -2.50893243E-06  8.35631120E-05 -1.09699087E-05
 -9.37890927E-05  5.71099041E-07  2.76738531E-05  0.00000000E+00  1.69257079E-03
  1.35715456E-03  1.30069473E-04  7.68329162E-05  0.00000000E+00  2.37295869E-04
  1.36329780E-04  2.18850104E-04  0.00000000E+00  5.07172237E-04  4.86809318E-04
 -4.24645065E-04  0.00000000E+00  2.46064379E-04  2.12359003E-04  2.58784072E-04
  0.00000000E+00  4.56223124E-05  0.00000000E+00  0.00000000E+00 -5.38426074E-05
  1.48343432E-04  5.16542508E-06  1.85181065E-04  1.55491456E-04  3.10933017E-06
  5.62578929E-05 -1.12334543E-06  0.00000000E+00  1.11647437E-05  1.49204199E-06
 -6.79890683E-06 -7.63309783E-06  0.00000000E+00  3.09972512E-05  3.05641072E-05
  8.22292183E-05  0.00000000E+00 -4.49600351E-04  1.11681305E-04 -1.10879029E-04