 Entering Gaussian System, Link 0=g09
 Initial command:
 /apps/software//g09/l1.exe /scratch/itamar/2481.cluster.abaxnet/Gau-30117.inp -scrdir=/scratch/itamar/2481.cluster.abaxnet/
 Entering Link 1 = /apps/software//g09/l1.exe PID=     30118.
  
 Copyright (c) 1988,1990,1992,1993,1995,1998,2003,2009, Gaussian, Inc.
                  All Rights Reserved.
  
 This is part of the Gaussian(R) 09 program.  It is based on
 the Gaussian(R) 03 system (copyright 2003, Gaussian, Inc.),
 the Gaussian(R) 98 system (copyright 1998, Gaussian, Inc.),
 the Gaussian(R) 94 system (copyright 1995, Gaussian, Inc.),
 the Gaussian 92(TM) system (copyright 1992, Gaussian, Inc.),
 the Gaussian 90(TM) system (copyright 1990, Gaussian, Inc.),
 the Gaussian 88(TM) system (copyright 1988, Gaussian, Inc.),
 the Gaussian 86(TM) system (copyright 1986, Carnegie Mellon
 University), and the Gaussian 82(TM) system (copyright 1983,
 Carnegie Mellon University). Gaussian is a federally registered
 trademark of Gaussian, Inc.
  
 This software contains proprietary and confidential information,
 including trade secrets, belonging to Gaussian, Inc.
  
 This software is provided under written license and may be
 used, copied, transmitted, or stored only in accord with that
 written license.
  
 The following legend is applicable only to US Government
 contracts under FAR:
  
                    RESTRICTED RIGHTS LEGEND
  
 Use, reproduction and disclosure by the US Government is
 subject to restrictions as set forth in subparagraphs (a)
 and (c) of the Commercial Computer Software - Restricted
 Rights clause in FAR 52.227-19.
  
 Gaussian, Inc.
 340 Quinnipiac St., Bldg. 40, Wallingford CT 06492
  
  
 ---------------------------------------------------------------
 Warning -- This program may not be used in any manner that
 competes with the business of Gaussian, Inc. or will provide
 assistance to any competitor of Gaussian, Inc.  The licensee
 of this program is prohibited from giving any competitor of
 Gaussian, Inc. access to this program.  By using this program,
 the user acknowledges that Gaussian, Inc. is engaged in the
 business of creating and licensing software in the field of
 computational chemistry and represents and warrants to the
 licensee that it is not a competitor of Gaussian, Inc. and that
 it will not use this program in any manner prohibited above.
 ---------------------------------------------------------------
  

 Cite this work as:
 Gaussian 09, Revision A.02,
 M. J. Frisch, G. W. Trucks, H. B. Schlegel, G. E. Scuseria, 
 M. A. Robb, J. R. Cheeseman, G. Scalmani, V. Barone, B. Mennucci, 
 G. A. Petersson, H. Nakatsuji, M. Caricato, X. Li, H. P. Hratchian, 
 A. F. Izmaylov, J. Bloino, G. Zheng, J. L. Sonnenberg, M. Hada, 
 M. Ehara, K. Toyota, R. Fukuda, J. Hasegawa, M. Ishida, T. Nakajima, 
 Y. Honda, O. Kitao, H. Nakai, T. Vreven, J. A. Montgomery, Jr., 
 J. E. Peralta, F. Ogliaro, M. Bearpark, J. J. Heyd, E. Brothers, 
 K. N. Kudin, V. N. Staroverov, R. Kobayashi, J. Normand, 
 K. Raghavachari, A. Rendell, J. C. Burant, S. S. Iyengar, J. Tomasi, 
 M. Cossi, N. Rega, J. M. Millam, M. Klene, J. E. Knox, J. B. Cross, 
 V. Bakken, C. Adamo, J. Jaramillo, R. Gomperts, R. E. Stratmann, 
 O. Yazyev, A. J. Austin, R. Cammi, C. Pomelli, J. W. Ochterski, 
 R. L. Martin, K. Morokuma, V. G. Zakrzewski, G. A. Voth, 
 P. Salvador, J. J. Dannenberg, S. Dapprich, A. D. Daniels, 
 O. Farkas, J. B. Foresman, J. V. Ortiz, J. Cioslowski, 
 and D. J. Fox, Gaussian, Inc., Wallingford CT, 2009.
 
 ******************************************
 Gaussian 09:  EM64L-G09RevA.02 11-Jun-2009
                 3-Dec-2021 
 ******************************************
 %Mem=3800MB
 %NProcShared=6
 Will use up to    6 processors via shared memory.
 %chk=/home/itamar/Aromaticity-test-set/T10-old-T11-heteroaromatic/NH/nh.chk
 -----------------------------
 #P MP2/6-311++G** DENSITY=MP2
 -----------------------------
 1/30=1,38=1/1;
 2/12=2,17=6,18=5,40=1/2;
 3/5=4,6=6,7=1111,11=9,16=1,25=1,30=1,71=1/1,2,3;
 4//1;
 5/5=2,38=5/2;
 8/6=4,10=2/1;
 9/15=1,16=-3/6;
 10/5=1,13=10/2;
 6/7=2,8=2,9=2,10=2,22=2/1;
 99/5=1,9=1/99;
 Leave Link    1 at Fri Dec  3 16:56:11 2021, MaxMem=  498073600 cpu:       0.2
 (Enter /apps/software//g09/l101.exe)
 ---
 CH-
 ---
 Symbolic Z-matrix:
 Charge =  0 Multiplicity = 1
 6                     0.        1.12489   0.33118 
 6                     0.        0.71238  -0.98236 
 6                     0.       -0.71238  -0.98236 
 6                     0.       -1.12489   0.33118 
 7                     0.        0.        1.12157 
 1                     0.        0.        2.1276 
 1                     0.        2.11217   0.76326 
 1                     0.        1.35942  -1.84546 
 1                     0.       -1.35942  -1.84546 
 1                     0.       -2.11217   0.76326 
 
 NAtoms=     10 NQM=     10 NQMF=      0 NMic=      0 NMicF=      0 NTot=     10.
                    Isotopes and Nuclear Properties:
 (Nuclear quadrupole moments (NQMom) in fm**2, nuclear magnetic moments (NMagM)
  in nuclear magnetons)

  Atom         1           2           3           4           5           6           7           8           9          10
 IAtWgt=          12          12          12          12          14           1           1           1           1           1
 AtmWgt=  12.0000000  12.0000000  12.0000000  12.0000000  14.0030740   1.0078250   1.0078250   1.0078250   1.0078250   1.0078250
 NucSpn=           0           0           0           0           2           1           1           1           1           1
 AtZEff=   0.0000000   0.0000000   0.0000000   0.0000000   0.0000000   0.0000000   0.0000000   0.0000000   0.0000000   0.0000000
 NQMom=    0.0000000   0.0000000   0.0000000   0.0000000   2.0440000   0.0000000   0.0000000   0.0000000   0.0000000   0.0000000
 NMagM=    0.0000000   0.0000000   0.0000000   0.0000000   0.4037610   2.7928460   2.7928460   2.7928460   2.7928460   2.7928460
 Leave Link  101 at Fri Dec  3 16:56:11 2021, MaxMem=  498073600 cpu:       0.4
 (Enter /apps/software//g09/l202.exe)
                          Input orientation:                          
 ---------------------------------------------------------------------
 Center     Atomic      Atomic             Coordinates (Angstroms)
 Number     Number       Type             X           Y           Z
 ---------------------------------------------------------------------
      1          6           0        0.000000    1.124886    0.331177
      2          6           0        0.000000    0.712382   -0.982359
      3          6           0        0.000000   -0.712382   -0.982359
      4          6           0        0.000000   -1.124886    0.331177
      5          7           0        0.000000    0.000000    1.121570
      6          1           0        0.000000    0.000000    2.127602
      7          1           0        0.000000    2.112170    0.763257
      8          1           0        0.000000    1.359416   -1.845462
      9          1           0        0.000000   -1.359416   -1.845462
     10          1           0        0.000000   -2.112170    0.763257
 ---------------------------------------------------------------------
                    Distance matrix (angstroms):
                    1          2          3          4          5
     1  C    0.000000
     2  C    1.376785   0.000000
     3  C    2.258524   1.424764   0.000000
     4  C    2.249772   2.258524   1.376785   0.000000
     5  N    1.374805   2.221262   2.221262   1.374805   0.000000
     6  H    2.119555   3.190509   3.190509   2.119555   1.006032
     7  H    1.077693   2.237539   3.320432   3.265766   2.142347
     8  H    2.189238   1.078703   2.244392   3.302955   3.263632
     9  H    3.302955   2.244392   1.078703   2.189238   3.263632
    10  H    3.265766   3.320432   2.237539   1.077693   2.142347
                    6          7          8          9         10
     6  H    0.000000
     7  H    2.514498   0.000000
     8  H    4.199196   2.715153   0.000000
     9  H    4.199196   4.342502   2.718832   0.000000
    10  H    2.514498   4.224340   4.342502   2.715153   0.000000
 Stoichiometry    C4H5N
 Framework group  C2V[C2(NH),SGV(C4H4)]
 Deg. of freedom     9
 Full point group                 C2V     NOp   4
 Largest Abelian subgroup         C2V     NOp   4
 Largest concise Abelian subgroup C2      NOp   2
                         Standard orientation:                         
 ---------------------------------------------------------------------
 Center     Atomic      Atomic             Coordinates (Angstroms)
 Number     Number       Type             X           Y           Z
 ---------------------------------------------------------------------
      1          6           0        0.000000    1.124886    0.331177
      2          6           0        0.000000    0.712382   -0.982359
      3          6           0        0.000000   -0.712382   -0.982359
      4          6           0        0.000000   -1.124886    0.331177
      5          7           0        0.000000    0.000000    1.121570
      6          1           0        0.000000    0.000000    2.127602
      7          1           0        0.000000    2.112170    0.763257
      8          1           0        0.000000    1.359416   -1.845462
      9          1           0        0.000000   -1.359416   -1.845462
     10          1           0        0.000000   -2.112170    0.763257
 ---------------------------------------------------------------------
 Rotational constants (GHZ):      9.1445084      9.0232068      4.5417263
 Leave Link  202 at Fri Dec  3 16:56:11 2021, MaxMem=  498073600 cpu:       0.1
 (Enter /apps/software//g09/l301.exe)
 Standard basis: 6-311++G(d,p) (5D, 7F)
 Ernie: Thresh=  0.10000D-02 Tol=  0.10000D-05 Strict=F.
 There are    60 symmetry adapted basis functions of A1  symmetry.
 There are    15 symmetry adapted basis functions of A2  symmetry.
 There are    20 symmetry adapted basis functions of B1  symmetry.
 There are    50 symmetry adapted basis functions of B2  symmetry.
 Integral buffers will be    131072 words long.
 Raffenetti 1 integral format.
 Two-electron integral symmetry is turned on.
   145 basis functions,   225 primitive gaussians,   150 cartesian basis functions
    18 alpha electrons       18 beta electrons
       nuclear repulsion energy       160.8754580189 Hartrees.
 IExCor=    0 DFT=F Ex=HF Corr=None ExCW=0 ScaHFX=  1.000000
 ScaDFX=  1.000000  1.000000  1.000000  1.000000 ScalE2=  1.000000  1.000000
 IRadAn=      0 IRanWt=     -1 IRanGd=            0 ICorTp=0
 NAtoms=   10 NActive=   10 NUniq=    6 SFac= 2.08D+00 NAtFMM=   80 NAOKFM=F Big=F
 Leave Link  301 at Fri Dec  3 16:56:11 2021, MaxMem=  498073600 cpu:       0.4
 (Enter /apps/software//g09/l302.exe)
 NPDir=0 NMtPBC=     1 NCelOv=     1 NCel=       1 NClECP=     1 NCelD=      1
         NCelK=      1 NCelE2=     1 NClLst=     1 CellRange=     0.0.
 One-electron integrals computed using PRISM.
 One-electron integral symmetry used in STVInt
 NBasis=   145 RedAO= T  NBF=    60    15    20    50
 NBsUse=   145 1.00D-06 NBFU=    60    15    20    50
 Leave Link  302 at Fri Dec  3 16:56:11 2021, MaxMem=  498073600 cpu:       0.9
 (Enter /apps/software//g09/l303.exe)
 DipDrv:  MaxL=1.
 Leave Link  303 at Fri Dec  3 16:56:11 2021, MaxMem=  498073600 cpu:       0.2
 (Enter /apps/software//g09/l401.exe)
 Harris functional with IExCor=  205 diagonalized for initial guess.
 ExpMin= 3.60D-02 ExpMax= 6.29D+03 ExpMxC= 9.49D+02 IAcc=3 IRadAn=         0 AccDes= 0.00D+00
 HarFok:  IExCor=  205 AccDes= 0.00D+00 IRadAn=         0 IDoV= 1
 ScaDFX=  1.000000  1.000000  1.000000  1.000000
 FoFCou: FMM=F IPFlag=           0 FMFlag=      100000 FMFlg1=           0
         NFxFlg=           0 DoJE=T BraDBF=F KetDBF=T FulRan=T
         Omega=  0.000000  0.000000  1.000000  0.000000  0.000000 ICntrl=     500 IOpCl=  0
         NMat0=    1 NMatS0=    1 NMatT0=    0 NMatD0=    1 NMtDS0=    0 NMtDT0=    0
         I1Cent=           4 NGrid=           0.
 Petite list used in FoFCou.
 Harris En= -209.213153012134    
 Initial guess orbital symmetries:
       Occupied  (A1) (A1) (B2) (B2) (A1) (A1) (A1) (B2) (A1) (B2)
                 (A1) (A1) (B2) (B2) (A1) (B1) (B1) (A2)
       Virtual   (B1) (A2) (A1) (A1) (B2) (A1) (B2) (A1) (B1) (B2)
                 (A1) (A2) (A1) (B1) (B2) (A1) (B2) (A1) (B2) (B2)
                 (A1) (A2) (A1) (B1) (A1) (B2) (A1) (B2) (B2) (A1)
                 (A1) (B2) (B2) (A1) (B2) (A1) (B2) (A1) (B1) (A1)
                 (B2) (A2) (B1) (A2) (B2) (A1) (A1) (B2) (A1) (A1)
                 (B2) (B2) (B1) (A1) (A1) (B2) (B2) (A1) (B1) (B2)
                 (B1) (A1) (A2) (B2) (A2) (A1) (B1) (A1) (A1) (B2)
                 (A1) (A2) (B1) (B2) (A1) (B1) (A1) (B2) (B1) (A2)
                 (B2) (A1) (B2) (A2) (B2) (A1) (B1) (B2) (A1) (A2)
                 (B2) (A1) (A2) (A1) (B1) (B2) (A1) (B1) (B2) (A1)
                 (A1) (A2) (B2) (B2) (A1) (B1) (B2) (A2) (A1) (A1)
                 (B2) (B2) (A1) (A1) (B2) (A1) (B1) (A1) (B2) (B2)
                 (A1) (B2) (A1) (B2) (A1) (B2) (A1)
 The electronic state of the initial guess is 1-A1.
 Leave Link  401 at Fri Dec  3 16:56:12 2021, MaxMem=  498073600 cpu:       1.7
 (Enter /apps/software//g09/l502.exe)
 Closed shell SCF:
 Requested convergence on RMS density matrix=1.00D-08 within 128 cycles.
 Requested convergence on MAX density matrix=1.00D-06.
 Requested convergence on             energy=1.00D-06.
 No special actions if energy rises.
 Using DIIS extrapolation, IDIIS=  1040.
 Integral symmetry usage will be decided dynamically.
 Keep R1 ints in memory in canonical form, NReq=65942865.
 IEnd=       87976 IEndB=       87976 NGot=   498073600 MDV=   433891412
 LenX=   433891412 LenY=   433868471
 Symmetry not used in FoFDir.
 MinBra= 0 MaxBra= 2 Meth= 1.
 IRaf=       0 NMat=   1 IRICut=       1 DoRegI=T DoRafI=F ISym2E= 0 JSym2E=0.

 Cycle   1  Pass 1  IDiag  1:
 E= -208.586444678494    
 DIIS: error= 5.91D-02 at cycle   1 NSaved=   1.
 NSaved= 1 IEnMin= 1 EnMin= -208.586444678494     IErMin= 1 ErrMin= 5.91D-02
 ErrMax= 5.91D-02 EMaxC= 1.00D-01 BMatC= 4.74D-01 BMatP= 4.74D-01
 IDIUse=3 WtCom= 4.09D-01 WtEn= 5.91D-01
 Coeff-Com:  0.100D+01
 Coeff-En:   0.100D+01
 Coeff:      0.100D+01
 Gap=     0.264 Goal=   None    Shift=    0.000
 GapD=    0.264 DampG=1.000 DampE=0.500 DampFc=0.5000 IDamp=-1.
 Damping current iteration by 5.00D-01
 RMSDP=6.43D-03 MaxDP=2.19D-01              OVMax= 1.83D-01

 Cycle   2  Pass 1  IDiag  1:
 E= -208.732383841632     Delta-E=       -0.145939163137 Rises=F Damp=T
 DIIS: error= 2.98D-02 at cycle   2 NSaved=   2.
 NSaved= 2 IEnMin= 2 EnMin= -208.732383841632     IErMin= 2 ErrMin= 2.98D-02
 ErrMax= 2.98D-02 EMaxC= 1.00D-01 BMatC= 9.55D-02 BMatP= 4.74D-01
 IDIUse=3 WtCom= 7.02D-01 WtEn= 2.98D-01
 Coeff-Com: -0.604D+00 0.160D+01
 Coeff-En:   0.000D+00 0.100D+01
 Coeff:     -0.424D+00 0.142D+01
 Gap=     0.343 Goal=   None    Shift=    0.000
 RMSDP=3.16D-03 MaxDP=7.53D-02 DE=-1.46D-01 OVMax= 6.70D-02

 Cycle   3  Pass 1  IDiag  1:
 E= -208.861575192680     Delta-E=       -0.129191351048 Rises=F Damp=F
 DIIS: error= 4.14D-03 at cycle   3 NSaved=   3.
 NSaved= 3 IEnMin= 3 EnMin= -208.861575192680     IErMin= 3 ErrMin= 4.14D-03
 ErrMax= 4.14D-03 EMaxC= 1.00D-01 BMatC= 1.54D-03 BMatP= 9.55D-02
 IDIUse=3 WtCom= 9.59D-01 WtEn= 4.14D-02
 Coeff-Com: -0.104D+00 0.170D+00 0.934D+00
 Coeff-En:   0.000D+00 0.000D+00 0.100D+01
 Coeff:     -0.998D-01 0.163D+00 0.937D+00
 Gap=     0.337 Goal=   None    Shift=    0.000
 RMSDP=5.68D-04 MaxDP=1.18D-02 DE=-1.29D-01 OVMax= 1.77D-02

 Cycle   4  Pass 1  IDiag  1:
 E= -208.863106423155     Delta-E=       -0.001531230475 Rises=F Damp=F
 DIIS: error= 1.08D-03 at cycle   4 NSaved=   4.
 NSaved= 4 IEnMin= 4 EnMin= -208.863106423155     IErMin= 4 ErrMin= 1.08D-03
 ErrMax= 1.08D-03 EMaxC= 1.00D-01 BMatC= 9.86D-05 BMatP= 1.54D-03
 IDIUse=3 WtCom= 9.89D-01 WtEn= 1.08D-02
 Coeff-Com: -0.932D-02 0.707D-02 0.155D+00 0.848D+00
 Coeff-En:   0.000D+00 0.000D+00 0.000D+00 0.100D+01
 Coeff:     -0.922D-02 0.699D-02 0.153D+00 0.849D+00
 Gap=     0.336 Goal=   None    Shift=    0.000
 RMSDP=1.79D-04 MaxDP=3.02D-03 DE=-1.53D-03 OVMax= 4.93D-03

 Cycle   5  Pass 1  IDiag  1:
 E= -208.863232113419     Delta-E=       -0.000125690264 Rises=F Damp=F
 DIIS: error= 1.02D-03 at cycle   5 NSaved=   5.
 NSaved= 5 IEnMin= 5 EnMin= -208.863232113419     IErMin= 5 ErrMin= 1.02D-03
 ErrMax= 1.02D-03 EMaxC= 1.00D-01 BMatC= 1.69D-05 BMatP= 9.86D-05
 IDIUse=3 WtCom= 9.90D-01 WtEn= 1.02D-02
 Coeff-Com:  0.943D-02-0.170D-01-0.724D-01 0.176D+00 0.904D+00
 Coeff-En:   0.000D+00 0.000D+00 0.000D+00 0.000D+00 0.100D+01
 Coeff:      0.934D-02-0.168D-01-0.717D-01 0.174D+00 0.905D+00
 Gap=     0.336 Goal=   None    Shift=    0.000
 RMSDP=1.00D-04 MaxDP=1.52D-03 DE=-1.26D-04 OVMax= 4.02D-03

 Cycle   6  Pass 1  IDiag  1:
 E= -208.863269047465     Delta-E=       -0.000036934046 Rises=F Damp=F
 DIIS: error= 2.41D-04 at cycle   6 NSaved=   6.
 NSaved= 6 IEnMin= 6 EnMin= -208.863269047465     IErMin= 6 ErrMin= 2.41D-04
 ErrMax= 2.41D-04 EMaxC= 1.00D-01 BMatC= 2.80D-06 BMatP= 1.69D-05
 IDIUse=3 WtCom= 9.98D-01 WtEn= 2.41D-03
 Coeff-Com:  0.201D-02-0.266D-02-0.200D-01-0.134D+00 0.323D-01 0.112D+01
 Coeff-En:   0.000D+00 0.000D+00 0.000D+00 0.000D+00 0.000D+00 0.100D+01
 Coeff:      0.201D-02-0.265D-02-0.199D-01-0.133D+00 0.322D-01 0.112D+01
 Gap=     0.336 Goal=   None    Shift=    0.000
 RMSDP=4.98D-05 MaxDP=1.11D-03 DE=-3.69D-05 OVMax= 1.79D-03

 Cycle   7  Pass 1  IDiag  1:
 E= -208.863277787023     Delta-E=       -0.000008739558 Rises=F Damp=F
 DIIS: error= 1.43D-04 at cycle   7 NSaved=   7.
 NSaved= 7 IEnMin= 7 EnMin= -208.863277787023     IErMin= 7 ErrMin= 1.43D-04
 ErrMax= 1.43D-04 EMaxC= 1.00D-01 BMatC= 3.06D-07 BMatP= 2.80D-06
 IDIUse=3 WtCom= 9.99D-01 WtEn= 1.43D-03
 Coeff-Com: -0.947D-03 0.170D-02 0.926D-02-0.159D-01-0.749D-01-0.756D-01
 Coeff-Com:  0.116D+01
 Coeff-En:   0.000D+00 0.000D+00 0.000D+00 0.000D+00 0.000D+00 0.000D+00
 Coeff-En:   0.100D+01
 Coeff:     -0.946D-03 0.169D-02 0.925D-02-0.159D-01-0.748D-01-0.755D-01
 Coeff:      0.116D+01
 Gap=     0.336 Goal=   None    Shift=    0.000
 RMSDP=1.40D-05 MaxDP=3.25D-04 DE=-8.74D-06 OVMax= 8.41D-04

 Cycle   8  Pass 1  IDiag  1:
 E= -208.863279201583     Delta-E=       -0.000001414561 Rises=F Damp=F
 DIIS: error= 3.45D-05 at cycle   8 NSaved=   8.
 NSaved= 8 IEnMin= 8 EnMin= -208.863279201583     IErMin= 8 ErrMin= 3.45D-05
 ErrMax= 3.45D-05 EMaxC= 1.00D-01 BMatC= 8.31D-08 BMatP= 3.06D-07
 IDIUse=1 WtCom= 1.00D+00 WtEn= 0.00D+00
 Coeff-Com: -0.685D-03 0.989D-03 0.664D-02 0.302D-01-0.190D-01-0.321D+00
 Coeff-Com:  0.196D+00 0.111D+01
 Coeff:     -0.685D-03 0.989D-03 0.664D-02 0.302D-01-0.190D-01-0.321D+00
 Coeff:      0.196D+00 0.111D+01
 Gap=     0.336 Goal=   None    Shift=    0.000
 RMSDP=8.17D-06 MaxDP=1.52D-04 DE=-1.41D-06 OVMax= 4.54D-04

 Cycle   9  Pass 1  IDiag  1:
 E= -208.863279468706     Delta-E=       -0.000000267123 Rises=F Damp=F
 DIIS: error= 4.27D-06 at cycle   9 NSaved=   9.
 NSaved= 9 IEnMin= 9 EnMin= -208.863279468706     IErMin= 9 ErrMin= 4.27D-06
 ErrMax= 4.27D-06 EMaxC= 1.00D-01 BMatC= 1.12D-09 BMatP= 8.31D-08
 IDIUse=1 WtCom= 1.00D+00 WtEn= 0.00D+00
 Coeff-Com:  0.152D-03-0.227D-03-0.176D-02-0.500D-02 0.626D-02 0.682D-01
 Coeff-Com: -0.675D-01-0.271D+00 0.127D+01
 Coeff:      0.152D-03-0.227D-03-0.176D-02-0.500D-02 0.626D-02 0.682D-01
 Coeff:     -0.675D-01-0.271D+00 0.127D+01
 Gap=     0.336 Goal=   None    Shift=    0.000
 RMSDP=1.27D-06 MaxDP=3.33D-05 DE=-2.67D-07 OVMax= 4.18D-05

 Cycle  10  Pass 1  IDiag  1:
 E= -208.863279472555     Delta-E=       -0.000000003848 Rises=F Damp=F
 DIIS: error= 7.54D-07 at cycle  10 NSaved=  10.
 NSaved=10 IEnMin=10 EnMin= -208.863279472555     IErMin=10 ErrMin= 7.54D-07
 ErrMax= 7.54D-07 EMaxC= 1.00D-01 BMatC= 8.46D-11 BMatP= 1.12D-09
 IDIUse=1 WtCom= 1.00D+00 WtEn= 0.00D+00
 Coeff-Com: -0.300D-04 0.481D-04 0.353D-03 0.108D-02-0.239D-02-0.119D-01
 Coeff-Com:  0.196D-01 0.456D-01-0.431D+00 0.138D+01
 Coeff:     -0.300D-04 0.481D-04 0.353D-03 0.108D-02-0.239D-02-0.119D-01
 Coeff:      0.196D-01 0.456D-01-0.431D+00 0.138D+01
 Gap=     0.336 Goal=   None    Shift=    0.000
 RMSDP=3.29D-07 MaxDP=1.13D-05 DE=-3.85D-09 OVMax= 7.96D-06

 Cycle  11  Pass 1  IDiag  1:
 E= -208.863279472775     Delta-E=       -0.000000000220 Rises=F Damp=F
 DIIS: error= 1.93D-07 at cycle  11 NSaved=  11.
 NSaved=11 IEnMin=11 EnMin= -208.863279472775     IErMin=11 ErrMin= 1.93D-07
 ErrMax= 1.93D-07 EMaxC= 1.00D-01 BMatC= 4.47D-12 BMatP= 8.46D-11
 IDIUse=1 WtCom= 1.00D+00 WtEn= 0.00D+00
 Coeff-Com:  0.108D-06-0.171D-06-0.277D-04-0.213D-04 0.218D-03 0.343D-03
 Coeff-Com: -0.156D-02-0.208D-02 0.706D-01-0.427D+00 0.136D+01
 Coeff:      0.108D-06-0.171D-06-0.277D-04-0.213D-04 0.218D-03 0.343D-03
 Coeff:     -0.156D-02-0.208D-02 0.706D-01-0.427D+00 0.136D+01
 Gap=     0.336 Goal=   None    Shift=    0.000
 RMSDP=6.80D-08 MaxDP=1.13D-06 DE=-2.20D-10 OVMax= 1.66D-06

 Cycle  12  Pass 1  IDiag  1:
 E= -208.863279472785     Delta-E=       -0.000000000010 Rises=F Damp=F
 DIIS: error= 3.42D-08 at cycle  12 NSaved=  12.
 NSaved=12 IEnMin=12 EnMin= -208.863279472785     IErMin=12 ErrMin= 3.42D-08
 ErrMax= 3.42D-08 EMaxC= 1.00D-01 BMatC= 1.59D-13 BMatP= 4.47D-12
 IDIUse=1 WtCom= 1.00D+00 WtEn= 0.00D+00
 Coeff-Com:  0.165D-05-0.263D-05-0.181D-04-0.576D-04 0.746D-04 0.756D-03
 Coeff-Com: -0.963D-03-0.285D-02 0.168D-01-0.253D-01-0.184D+00 0.120D+01
 Coeff:      0.165D-05-0.263D-05-0.181D-04-0.576D-04 0.746D-04 0.756D-03
 Coeff:     -0.963D-03-0.285D-02 0.168D-01-0.253D-01-0.184D+00 0.120D+01
 Gap=     0.336 Goal=   None    Shift=    0.000
 RMSDP=1.52D-08 MaxDP=4.78D-07 DE=-9.83D-12 OVMax= 3.84D-07

 Cycle  13  Pass 1  IDiag  1:
 E= -208.863279472789     Delta-E=       -0.000000000004 Rises=F Damp=F
 DIIS: error= 5.43D-09 at cycle  13 NSaved=  13.
 NSaved=13 IEnMin=13 EnMin= -208.863279472789     IErMin=13 ErrMin= 5.43D-09
 ErrMax= 5.43D-09 EMaxC= 1.00D-01 BMatC= 3.64D-15 BMatP= 1.59D-13
 IDIUse=1 WtCom= 1.00D+00 WtEn= 0.00D+00
 Coeff-Com: -0.347D-06 0.548D-06 0.467D-05 0.138D-04-0.263D-04-0.155D-03
 Coeff-Com:  0.246D-03 0.604D-03-0.522D-02 0.159D-01 0.675D-02-0.275D+00
 Coeff-Com:  0.126D+01
 Coeff:     -0.347D-06 0.548D-06 0.467D-05 0.138D-04-0.263D-04-0.155D-03
 Coeff:      0.246D-03 0.604D-03-0.522D-02 0.159D-01 0.675D-02-0.275D+00
 Coeff:      0.126D+01
 Gap=     0.336 Goal=   None    Shift=    0.000
 RMSDP=3.87D-09 MaxDP=1.70D-07 DE=-3.75D-12 OVMax= 4.18D-08

 SCF Done:  E(RHF) =  -208.863279473     A.U. after   13 cycles
             Convg  =    0.3865D-08             -V/T =  2.0014
 KE= 2.085679015852D+02 PE=-8.088051348321D+02 EE= 2.304984957552D+02
 Leave Link  502 at Fri Dec  3 16:56:15 2021, MaxMem=  498073600 cpu:      20.9
 (Enter /apps/software//g09/l801.exe)
 ExpMin= 3.60D-02 ExpMax= 6.29D+03 ExpMxC= 9.49D+02 IAcc=3 IRadAn=         5 AccDes= 0.00D+00
 HarFok:  IExCor=  205 AccDes= 0.00D+00 IRadAn=         5 IDoV=-2
 ScaDFX=  1.000000  1.000000  1.000000  1.000000
 Largest valence mixing into a core orbital is  1.41D-04
 Largest core mixing into a valence orbital is  4.39D-05
 Range of M.O.s used for correlation:     6   145
 NBasis=   145 NAE=    18 NBE=    18 NFC=     5 NFV=     0
 NROrb=    140 NOA=    13 NOB=    13 NVA=   127 NVB=   127

 **** Warning!!: The largest alpha MO coefficient is  0.13663303D+03

 Leave Link  801 at Fri Dec  3 16:56:15 2021, MaxMem=  498073600 cpu:       1.0
 (Enter /apps/software//g09/l906.exe)
 Frozen-core derivative calculation, NFC=   5 NFV=   0.
 FulOut=F Deriv=T AODrv=F NAtomX=    10
   MMem=         540  MDisk=          13 MDiskD=          13
  W3Min=      391500 MinDsk=      649025 NBas6D=         150
 NBas2D=       11535    NTT=       11325    LW2=     2040000
    MDV=   497799867 MDiskM=       45907 NBas2p=        6131
 Fully in-core method, ICMem=   139920225.
 IMap=   1   2   3   4   5   6   7   8   9  10  11  12  13  14  15  16  17  18
 JobTyp=1 Pass  1 fully in-core, NPsUse=  6.
 Compute canonical integrals, IntTyp=   4.
 Symmetry not used in FoFDir.
 MinBra= 0 MaxBra= 2 Meth= 1.
 IRaf=       0 NMat=   1 IRICut=       1 DoRegI=T DoRafI=F ISym2E= 0 JSym2E=0.
 Spin components of T(2) and E(2):
     alpha-alpha T2 =       0.3497785171D-01 E2=     -0.9666225268D-01
     alpha-beta  T2 =       0.1881495388D+00 E2=     -0.5449011085D+00
     beta-beta   T2 =       0.3497785171D-01 E2=     -0.9666225268D-01
 The integrals were generated   1 times.
 ANorm=    0.1121652906D+01
 E2 =    -0.7382256139D+00 EUMP2 =    -0.20960150508667D+03
 Leave Link  906 at Fri Dec  3 16:56:34 2021, MaxMem=  498073600 cpu:     111.3
 (Enter /apps/software//g09/l1002.exe)
 Minotr:  Closed shell wavefunction.
          Computing MP2/KS-MP2 derivatives.
          Using Z-Vector for PSCF gradient.
          Skipping F1 and S1 gradient terms here.
          Frozen-core window.
          Direct CPHF calculation.
          Differentiating once with respect to electric field.
                with respect to dipole field.
          Electric field/nuclear overlap derivatives assumed to be zero.
          Using symmetry in CPHF.
          Requested convergence is 1.0D-10 RMS, and 1.0D-09 maximum.
          NewPWx=F KeepS1=T KeepF1=T KeepIn=T MapXYZ=F SortEE=F KeepMc=T.
          MDV=     498073516 using IRadAn=       0.
          Keep R1 ints in memory in canonical form, NReq=64955109.
 Symmetry not used in FoFDir.
 MinBra= 0 MaxBra= 2 Meth= 1.
 IRaf=       0 NMat=   1 IRICut=       1 DoRegI=T DoRafI=F ISym2E= 0 JSym2E=0.
          Solving linear equations separately, MaxMat=       0.
          There are     1 degrees of freedom in the 1st order CPHF.  IDoFFX=0.
 LinEq1:  Iter=  0 NonCon=     1 RMS=4.06D-03 Max=6.90D-02
 AX will form     1 AO Fock derivatives at one time.
 LinEq1:  Iter=  1 NonCon=     1 RMS=1.04D-03 Max=1.26D-02
 LinEq1:  Iter=  2 NonCon=     1 RMS=4.61D-04 Max=1.04D-02
 LinEq1:  Iter=  3 NonCon=     1 RMS=1.21D-04 Max=2.32D-03
 LinEq1:  Iter=  4 NonCon=     1 RMS=4.55D-05 Max=7.60D-04
 LinEq1:  Iter=  5 NonCon=     1 RMS=1.63D-05 Max=2.95D-04
 LinEq1:  Iter=  6 NonCon=     1 RMS=2.98D-06 Max=3.66D-05
 LinEq1:  Iter=  7 NonCon=     1 RMS=9.64D-07 Max=9.90D-06
 LinEq1:  Iter=  8 NonCon=     1 RMS=2.13D-07 Max=2.47D-06
 LinEq1:  Iter=  9 NonCon=     1 RMS=2.80D-08 Max=2.48D-07
 LinEq1:  Iter= 10 NonCon=     1 RMS=4.73D-09 Max=4.27D-08
 LinEq1:  Iter= 11 NonCon=     1 RMS=7.18D-10 Max=8.40D-09
 LinEq1:  Iter= 12 NonCon=     1 RMS=1.12D-10 Max=1.13D-09
 LinEq1:  Iter= 13 NonCon=     0 RMS=1.52D-11 Max=1.25D-10
 Linear equations converged to 1.000D-10 1.000D-09 after    13 iterations.
 End of Minotr Frequency-dependent properties file   721 does not exist.
 End of Minotr Frequency-dependent properties file   722 does not exist.
 Leave Link 1002 at Fri Dec  3 16:56:37 2021, MaxMem=  498073600 cpu:      21.0
 (Enter /apps/software//g09/l601.exe)
 Copying SCF densities to generalized density rwf, IOpCl= 0 IROHF=0.

 **********************************************************************

            Population analysis using the MP2 density.

 **********************************************************************

 Orbital symmetries:
       Occupied  (A1) (B2) (A1) (A1) (B2) (A1) (A1) (B2) (A1) (B2)
                 (A1) (A1) (B2) (B1) (B2) (A1) (B1) (A2)
       Virtual   (A1) (B2) (A1) (B2) (A1) (B1) (A1) (B2) (B1) (A2)
                 (A1) (A2) (A1) (B2) (A1) (B1) (B2) (A1) (B2) (B2)
                 (A1) (A1) (A2) (B1) (B2) (A1) (B2) (A1) (A1) (B2)
                 (A1) (B2) (B2) (A1) (A1) (B2) (A1) (B2) (B2) (A1)
                 (B1) (A2) (B1) (A1) (B2) (A2) (A1) (A1) (B2) (A1)
                 (B2) (B2) (A1) (B1) (A1) (B2) (B2) (A1) (B1) (B2)
                 (A1) (B2) (B1) (A2) (A2) (A1) (B1) (A1) (B2) (A1)
                 (A1) (A2) (B1) (B2) (A1) (B1) (B2) (A1) (B1) (A2)
                 (B2) (A1) (B2) (B1) (A2) (B2) (A1) (B2) (A1) (A2)
                 (B2) (A1) (A2) (A1) (B1) (B2) (A1) (A1) (B2) (A1)
                 (B2) (B2) (A1) (B1) (A2) (A1) (B1) (B2) (A2) (A1)
                 (B2) (B2) (A1) (A1) (B2) (A1) (B1) (A1) (B2) (B2)
                 (A1) (B2) (A1) (B2) (A1) (B2) (A1)
 The electronic state is 1-A1.
 Alpha  occ. eigenvalues --  -15.60707 -11.25531 -11.25527 -11.21210 -11.21108
 Alpha  occ. eigenvalues --   -1.29139  -1.04291  -0.97852  -0.79401  -0.76803
 Alpha  occ. eigenvalues --   -0.73752  -0.59398  -0.58415  -0.56567  -0.54920
 Alpha  occ. eigenvalues --   -0.52909  -0.34656  -0.29826
 Alpha virt. eigenvalues --    0.03800   0.04948   0.05391   0.07113   0.07553
 Alpha virt. eigenvalues --    0.11143   0.13439   0.13820   0.14625   0.15496
 Alpha virt. eigenvalues --    0.16240   0.16334   0.18047   0.18291   0.19595
 Alpha virt. eigenvalues --    0.19951   0.20043   0.21188   0.21571   0.22439
 Alpha virt. eigenvalues --    0.23315   0.24746   0.28059   0.28301   0.28535
 Alpha virt. eigenvalues --    0.33466   0.34033   0.37492   0.39083   0.40714
 Alpha virt. eigenvalues --    0.41490   0.43956   0.44506   0.46213   0.53595
 Alpha virt. eigenvalues --    0.60765   0.63255   0.64783   0.73083   0.73313
 Alpha virt. eigenvalues --    0.74125   0.75500   0.78786   0.79477   0.80152
 Alpha virt. eigenvalues --    0.84951   0.85726   0.92417   0.95487   0.96150
 Alpha virt. eigenvalues --    1.01173   1.02462   1.02906   1.05958   1.06847
 Alpha virt. eigenvalues --    1.06915   1.10796   1.13015   1.19764   1.20116
 Alpha virt. eigenvalues --    1.24079   1.26809   1.33208   1.37432   1.42016
 Alpha virt. eigenvalues --    1.42900   1.43243   1.65342   1.79099   1.80853
 Alpha virt. eigenvalues --    1.82310   1.83885   1.85724   1.89861   1.94031
 Alpha virt. eigenvalues --    1.99375   2.02234   2.04654   2.10051   2.10943
 Alpha virt. eigenvalues --    2.15202   2.20484   2.22954   2.29303   2.29396
 Alpha virt. eigenvalues --    2.30065   2.31127   2.47031   2.48496   2.60916
 Alpha virt. eigenvalues --    2.70385   2.74477   2.78772   2.83547   2.85493
 Alpha virt. eigenvalues --    2.94997   2.95425   3.03003   3.04454   3.05126
 Alpha virt. eigenvalues --    3.08287   3.09546   3.12607   3.12976   3.20954
 Alpha virt. eigenvalues --    3.22525   3.31333   3.31683   3.43239   3.64076
 Alpha virt. eigenvalues --    3.72443   3.85062   3.90008   3.91757   3.98558
 Alpha virt. eigenvalues --    4.19617   4.34949   4.47905   4.50591   4.72097
 Alpha virt. eigenvalues --    5.40662   5.60438  24.87947  25.07157  25.30390
 Alpha virt. eigenvalues --   25.36402  37.02839
          Condensed to atoms (all electrons):
              1          2          3          4          5          6
     1  C    6.584273  -1.155075   1.345159  -0.790744  -0.004852  -0.074309
     2  C   -1.155075   7.678080  -1.996553   1.345159  -0.041960   0.021298
     3  C    1.345159  -1.996553   7.678080  -1.155075  -0.041960   0.021298
     4  C   -0.790744   1.345159  -1.155075   6.584273  -0.004852  -0.074309
     5  N   -0.004852  -0.041960  -0.041960  -0.004852   6.920433   0.398490
     6  H   -0.074309   0.021298   0.021298  -0.074309   0.398490   0.418773
     7  H    0.450904  -0.093113   0.039321   0.002537  -0.081262  -0.006764
     8  H   -0.173979   0.556453  -0.179264   0.070580   0.023192   0.001097
     9  H    0.070580  -0.179264   0.556453  -0.173979   0.023192   0.001097
    10  H    0.002537   0.039321  -0.093113   0.450904  -0.081262  -0.006764
              7          8          9         10
     1  C    0.450904  -0.173979   0.070580   0.002537
     2  C   -0.093113   0.556453  -0.179264   0.039321
     3  C    0.039321  -0.179264   0.556453  -0.093113
     4  C    0.002537   0.070580  -0.173979   0.450904
     5  N   -0.081262   0.023192   0.023192  -0.081262
     6  H   -0.006764   0.001097   0.001097  -0.006764
     7  H    0.538710  -0.011465   0.001051  -0.001672
     8  H   -0.011465   0.557909  -0.017194   0.001051
     9  H    0.001051  -0.017194   0.557909  -0.011465
    10  H   -0.001672   0.001051  -0.011465   0.538710
 Mulliken atomic charges:
              1
     1  C   -0.254495
     2  C   -0.174346
     3  C   -0.174346
     4  C   -0.254495
     5  N   -0.109158
     6  H    0.300093
     7  H    0.161753
     8  H    0.171620
     9  H    0.171620
    10  H    0.161753
 Sum of Mulliken atomic charges =   0.00000
 Mulliken charges with hydrogens summed into heavy atoms:
              1
     1  C   -0.092741
     2  C   -0.002726
     3  C   -0.002726
     4  C   -0.092741
     5  N    0.190935
 Sum of Mulliken charges with hydrogens summed into heavy atoms =   0.00000
 Electronic spatial extent (au):  <R**2>=            307.7528
 Charge=              0.0000 electrons
 Dipole moment (field-independent basis, Debye):
    X=              0.0000    Y=              0.0000    Z=              1.9452  Tot=              1.9452
 Quadrupole moment (field-independent basis, Debye-Ang):
   XX=            -35.0248   YY=            -27.5867   ZZ=            -24.2378
   XY=              0.0000   XZ=              0.0000   YZ=              0.0000
 Traceless Quadrupole moment (field-independent basis, Debye-Ang):
   XX=             -6.0750   YY=              1.3630   ZZ=              4.7120
   XY=              0.0000   XZ=              0.0000   YZ=              0.0000
 Octapole moment (field-independent basis, Debye-Ang**2):
  XXX=              0.0000  YYY=              0.0000  ZZZ=             12.6627  XYY=              0.0000
  XXY=              0.0000  XXZ=              2.3629  XZZ=              0.0000  YZZ=              0.0000
  YYZ=              2.7526  XYZ=              0.0000
 Hexadecapole moment (field-independent basis, Debye-Ang**3):
 XXXX=            -44.6209 YYYY=           -183.5277 ZZZZ=           -155.2014 XXXY=              0.0000
 XXXZ=              0.0000 YYYX=              0.0000 YYYZ=              0.0000 ZZZX=              0.0000
 ZZZY=              0.0000 XXYY=            -47.3873 XXZZ=            -43.9430 YYZZ=            -57.9091
 XXYZ=              0.0000 YYXZ=              0.0000 ZZXY=              0.0000
 N-N= 1.608754580189D+02 E-N=-8.094852640280D+02  KE= 2.095070830544D+02
 Symmetry A1   KE= 1.261088113962D+02
 Symmetry A2   KE= 2.381986031910D+00
 Symmetry B1   KE= 5.074138686843D+00
 Symmetry B2   KE= 7.594214693947D+01
 No NMR shielding tensors so no spin-rotation constants.
 Leave Link  601 at Fri Dec  3 16:56:38 2021, MaxMem=  498073600 cpu:       1.1
 (Enter /apps/software//g09/l9999.exe)
 1\1\GINC-DLT17\SP\RMP2-FC\6-311++G(d,p)\C4H5N1\ITAMAR\03-Dec-2021\0\\#
 P MP2/6-311++G** DENSITY=MP2\\CH-\\0,1\C,0,0.,1.124886,0.331177\C,0,0.
 ,0.712382,-0.982359\C,0,0.,-0.712382,-0.982359\C,0,0.,-1.124886,0.3311
 77\N,0,0.,0.,1.12157\H,0,0.,0.,2.127602\H,0,0.,2.11217,0.763257\H,0,0.
 ,1.359416,-1.845462\H,0,0.,-1.359416,-1.845462\H,0,0.,-2.11217,0.76325
 7\\Version=EM64L-G09RevA.02\State=1-A1\HF=-208.8632795\MP2=-209.601505
 1\RMSD=3.865e-09\Dipole=0.,0.,0.765306\Quadrupole=-4.5166419,1.013376,
 3.5032659,0.,0.,0.\PG=C02V [C2(N1H1),SGV(C4H4)]\\@


 Sometimes the fool who rushes in gets the job done.
                                    -- Al Bernstein
 Job cpu time:  0 days  0 hours  2 minutes 39.7 seconds.
 File lengths (MBytes):  RWF=     10 Int=      0 D2E=      0 Chk=      3 Scr=      1
 Normal termination of Gaussian 09 at Fri Dec  3 16:56:38 2021.
