 Entering Gaussian System, Link 0=g16
 Initial command:
 /sw/cluster/pub/apps//g16/l1.exe "/data/mmaximo/31366/Gau-50124.inp" -scrdir="/data/mmaximo/31366/"
 Entering Link 1 = /sw/cluster/pub/apps//g16/l1.exe PID=     50125.
  
 Copyright (c) 1988,1990,1992,1993,1995,1998,2003,2009,2016,
            Gaussian, Inc.  All Rights Reserved.
  
 This is part of the Gaussian(R) 16 program.  It is based on
 the Gaussian(R) 09 system (copyright 2009, Gaussian, Inc.),
 the Gaussian(R) 03 system (copyright 2003, Gaussian, Inc.),
 the Gaussian(R) 98 system (copyright 1998, Gaussian, Inc.),
 the Gaussian(R) 94 system (copyright 1995, Gaussian, Inc.),
 the Gaussian 92(TM) system (copyright 1992, Gaussian, Inc.),
 the Gaussian 90(TM) system (copyright 1990, Gaussian, Inc.),
 the Gaussian 88(TM) system (copyright 1988, Gaussian, Inc.),
 the Gaussian 86(TM) system (copyright 1986, Carnegie Mellon
 University), and the Gaussian 82(TM) system (copyright 1983,
 Carnegie Mellon University). Gaussian is a federally registered
 trademark of Gaussian, Inc.
  
 This software contains proprietary and confidential information,
 including trade secrets, belonging to Gaussian, Inc.
  
 This software is provided under written license and may be
 used, copied, transmitted, or stored only in accord with that
 written license.
  
 The following legend is applicable only to US Government
 contracts under FAR:
  
                    RESTRICTED RIGHTS LEGEND
  
 Use, reproduction and disclosure by the US Government is
 subject to restrictions as set forth in subparagraphs (a)
 and (c) of the Commercial Computer Software - Restricted
 Rights clause in FAR 52.227-19.
  
 Gaussian, Inc.
 340 Quinnipiac St., Bldg. 40, Wallingford CT 06492
  
  
 ---------------------------------------------------------------
 Warning -- This program may not be used in any manner that
 competes with the business of Gaussian, Inc. or will provide
 assistance to any competitor of Gaussian, Inc.  The licensee
 of this program is prohibited from giving any competitor of
 Gaussian, Inc. access to this program.  By using this program,
 the user acknowledges that Gaussian, Inc. is engaged in the
 business of creating and licensing software in the field of
 computational chemistry and represents and warrants to the
 licensee that it is not a competitor of Gaussian, Inc. and that
 it will not use this program in any manner prohibited above.
 ---------------------------------------------------------------
  

 Cite this work as:
 Gaussian 16, Revision A.03,
 M. J. Frisch, G. W. Trucks, H. B. Schlegel, G. E. Scuseria, 
 M. A. Robb, J. R. Cheeseman, G. Scalmani, V. Barone, 
 G. A. Petersson, H. Nakatsuji, X. Li, M. Caricato, A. V. Marenich, 
 J. Bloino, B. G. Janesko, R. Gomperts, B. Mennucci, H. P. Hratchian, 
 J. V. Ortiz, A. F. Izmaylov, J. L. Sonnenberg, D. Williams-Young, 
 F. Ding, F. Lipparini, F. Egidi, J. Goings, B. Peng, A. Petrone, 
 T. Henderson, D. Ranasinghe, V. G. Zakrzewski, J. Gao, N. Rega, 
 G. Zheng, W. Liang, M. Hada, M. Ehara, K. Toyota, R. Fukuda, 
 J. Hasegawa, M. Ishida, T. Nakajima, Y. Honda, O. Kitao, H. Nakai, 
 T. Vreven, K. Throssell, J. A. Montgomery, Jr., J. E. Peralta, 
 F. Ogliaro, M. J. Bearpark, J. J. Heyd, E. N. Brothers, K. N. Kudin, 
 V. N. Staroverov, T. A. Keith, R. Kobayashi, J. Normand, 
 K. Raghavachari, A. P. Rendell, J. C. Burant, S. S. Iyengar, 
 J. Tomasi, M. Cossi, J. M. Millam, M. Klene, C. Adamo, R. Cammi, 
 J. W. Ochterski, R. L. Martin, K. Morokuma, O. Farkas, 
 J. B. Foresman, and D. J. Fox, Gaussian, Inc., Wallingford CT, 2016.
 
 ******************************************
 Gaussian 16:  ES64L-G16RevA.03 25-Dec-2016
                13-Feb-2025 
 ******************************************
 %chk=CH2.chk
 ------------------------------------
 #P MP2/6-311++G** nosymm Density=MP2
 ------------------------------------
 1/30=1,38=1,172=1/1;
 2/12=2,15=1,17=6,18=5,40=1/2;
 3/5=4,6=6,7=1111,11=9,25=1,30=1,71=1/1,2,3;
 4//1;
 5/5=2,38=5/2;
 8/6=4,10=2/1;
 9/15=1,16=-3/6;
 10/5=1,13=10,31=1/2;
 6/7=2,8=2,9=2,10=2,22=2/1;
 99/5=1,9=1/99;
 Leave Link    1 at Thu Feb 13 09:48:34 2025, MaxMem=           0 cpu:               0.0 elap:               0.0
 (Enter /sw/cluster/pub/apps//g16/l101.exe)
 ---
 CH2
 ---
 Symbolic Z-matrix:
 Charge =  0 Multiplicity = 1
 C                     0.73412  -0.99016   0. 
 C                    -0.73412  -0.99016   0. 
 C                    -1.17932   0.28165   0. 
 C                     0.        1.21605   0. 
 C                     1.17932   0.28165   0. 
 H                     1.34789  -1.88185   0. 
 H                    -1.34789  -1.88185   0. 
 H                    -2.21046   0.60744   0. 
 H                     0.        1.8773   -0.87715 
 H                     0.        1.8773    0.87715 
 H                     2.21046   0.60744   0. 
 
 ITRead=  0  0  0  0  0  0  0  0  0  0  0
 MicOpt= -1 -1 -1 -1 -1 -1 -1 -1 -1 -1 -1
 NAtoms=     11 NQM=       11 NQMF=       0 NMMI=      0 NMMIF=      0
                NMic=       0 NMicF=      0.
                    Isotopes and Nuclear Properties:
 (Nuclear quadrupole moments (NQMom) in fm**2, nuclear magnetic moments (NMagM)
  in nuclear magnetons)

  Atom         1           2           3           4           5           6           7           8           9          10
 IAtWgt=          12          12          12          12          12           1           1           1           1           1
 AtmWgt=  12.0000000  12.0000000  12.0000000  12.0000000  12.0000000   1.0078250   1.0078250   1.0078250   1.0078250   1.0078250
 NucSpn=           0           0           0           0           0           1           1           1           1           1
 AtZEff=  -0.0000000  -0.0000000  -0.0000000  -0.0000000  -0.0000000  -0.0000000  -0.0000000  -0.0000000  -0.0000000  -0.0000000
 NQMom=    0.0000000   0.0000000   0.0000000   0.0000000   0.0000000   0.0000000   0.0000000   0.0000000   0.0000000   0.0000000
 NMagM=    0.0000000   0.0000000   0.0000000   0.0000000   0.0000000   2.7928460   2.7928460   2.7928460   2.7928460   2.7928460
 AtZNuc=   6.0000000   6.0000000   6.0000000   6.0000000   6.0000000   1.0000000   1.0000000   1.0000000   1.0000000   1.0000000

  Atom        11
 IAtWgt=           1
 AtmWgt=   1.0078250
 NucSpn=           1
 AtZEff=  -0.0000000
 NQMom=    0.0000000
 NMagM=    2.7928460
 AtZNuc=   1.0000000
 Leave Link  101 at Thu Feb 13 09:48:34 2025, MaxMem=   104857600 cpu:               0.0 elap:               0.0
 (Enter /sw/cluster/pub/apps//g16/l202.exe)
                          Input orientation:                          
 ---------------------------------------------------------------------
 Center     Atomic      Atomic             Coordinates (Angstroms)
 Number     Number       Type             X           Y           Z
 ---------------------------------------------------------------------
      1          6           0        0.734115   -0.990161    0.000000
      2          6           0       -0.734115   -0.990161    0.000000
      3          6           0       -1.179318    0.281653    0.000000
      4          6           0        0.000000    1.216052    0.000000
      5          6           0        1.179318    0.281653    0.000000
      6          1           0        1.347888   -1.881848    0.000000
      7          1           0       -1.347888   -1.881848    0.000000
      8          1           0       -2.210462    0.607439    0.000000
      9          1           0        0.000000    1.877297   -0.877146
     10          1           0        0.000000    1.877297    0.877146
     11          1           0        2.210462    0.607439    0.000000
 ---------------------------------------------------------------------
                    Distance matrix (angstroms):
                    1          2          3          4          5
     1  C    0.000000
     2  C    1.468230   0.000000
     3  C    2.297550   1.347485   0.000000
     4  C    2.325145   2.325145   1.504624   0.000000
     5  C    1.347485   2.297550   2.358636   1.504624   0.000000
     6  H    1.082508   2.264916   3.326786   3.378430   2.170058
     7  H    2.264916   1.082508   2.170058   3.378430   3.326786
     8  H    3.350054   2.175299   1.081386   2.292717   3.405400
     9  H    3.087171   3.087171   2.169391   1.098467   2.169391
    10  H    3.087171   3.087171   2.169391   1.098467   2.169391
    11  H    2.175299   3.350054   3.405400   2.292717   1.081386
                    6          7          8          9         10
     6  H    0.000000
     7  H    2.695776   0.000000
     8  H    4.342627   2.634499   0.000000
     9  H    4.088687   4.088687   2.695935   0.000000
    10  H    4.088687   4.088687   2.695935   1.754292   0.000000
    11  H    2.634499   4.342627   4.420924   2.695935   2.695935
                   11
    11  H    0.000000
 Symmetry turned off by external request.
 Stoichiometry    C5H6
 Framework group  C2V[C2(C),SGV(C4H4),SGV'(H2)]
 Deg. of freedom    10
 Full point group                 C2V     NOp   4
 Rotational constants (GHZ):           8.4661637           8.2343094           4.2840657
 Leave Link  202 at Thu Feb 13 09:48:34 2025, MaxMem=   104857600 cpu:               0.0 elap:               0.0
 (Enter /sw/cluster/pub/apps//g16/l301.exe)
 Standard basis: 6-311++G(d,p) (5D, 7F)
 Ernie: Thresh=  0.10000D-02 Tol=  0.10000D-05 Strict=F.
   152 basis functions,   234 primitive gaussians,   157 cartesian basis functions
    18 alpha electrons       18 beta electrons
       nuclear repulsion energy       156.6402585461 Hartrees.
 IExCor=    0 DFT=F Ex=HF Corr=None ExCW=0 ScaHFX=  1.000000
 ScaDFX=  1.000000  1.000000  1.000000  1.000000 ScalE2=  1.000000  1.000000
 IRadAn=      5 IRanWt=     -1 IRanGd=            0 ICorTp=0 IEmpDi=  4
 NAtoms=   11 NActive=   11 NUniq=   11 SFac= 1.00D+00 NAtFMM=   60 NAOKFM=F Big=F
 Integral buffers will be    131072 words long.
 Raffenetti 1 integral format.
 Two-electron integral symmetry is turned off.
 Leave Link  301 at Thu Feb 13 09:48:34 2025, MaxMem=   104857600 cpu:               0.0 elap:               0.0
 (Enter /sw/cluster/pub/apps//g16/l302.exe)
 NPDir=0 NMtPBC=     1 NCelOv=     1 NCel=       1 NClECP=     1 NCelD=      1
         NCelK=      1 NCelE2=     1 NClLst=     1 CellRange=     0.0.
 One-electron integrals computed using PRISM.
 NBasis=   152 RedAO= T EigKep=  7.85D-06  NBF=   152
 NBsUse=   152 1.00D-06 EigRej= -1.00D+00 NBFU=   152
 Leave Link  302 at Thu Feb 13 09:48:34 2025, MaxMem=   104857600 cpu:               0.0 elap:               0.0
 (Enter /sw/cluster/pub/apps//g16/l303.exe)
 DipDrv:  MaxL=1.
 Leave Link  303 at Thu Feb 13 09:48:34 2025, MaxMem=   104857600 cpu:               0.0 elap:               0.0
 (Enter /sw/cluster/pub/apps//g16/l401.exe)
 ExpMin= 3.60D-02 ExpMax= 4.56D+03 ExpMxC= 6.82D+02 IAcc=3 IRadAn=         5 AccDes= 0.00D+00
 Harris functional with IExCor=  205 and IRadAn=       5 diagonalized for initial guess.
 HarFok:  IExCor=  205 AccDes= 0.00D+00 IRadAn=         5 IDoV= 1 UseB2=F ITyADJ=14
 ICtDFT=  3500011 ScaDFX=  1.000000  1.000000  1.000000  1.000000
 FoFCou: FMM=F IPFlag=           0 FMFlag=      100000 FMFlg1=           0
         NFxFlg=           0 DoJE=T BraDBF=F KetDBF=T FulRan=T
         wScrn=  0.000000 ICntrl=       500 IOpCl=  0 I1Cent=   200000004 NGrid=           0
         NMat0=    1 NMatS0=      1 NMatT0=    0 NMatD0=    1 NMtDS0=    0 NMtDT0=    0
 Symmetry not used in FoFCou.
 Harris En= -193.205208520403    
 JPrj=0 DoOrth=F DoCkMO=F.
 Leave Link  401 at Thu Feb 13 09:48:35 2025, MaxMem=   104857600 cpu:               0.6 elap:               0.6
 (Enter /sw/cluster/pub/apps//g16/l502.exe)
 Keep R1 ints in memory in canonical form, NReq=69583658.
 FoFCou: FMM=F IPFlag=           0 FMFlag=           0 FMFlg1=           0
         NFxFlg=           0 DoJE=F BraDBF=F KetDBF=F FulRan=T
         wScrn=  0.000000 ICntrl=       600 IOpCl=  0 I1Cent=           0 NGrid=           0
         NMat0=    1 NMatS0=  11628 NMatT0=    0 NMatD0=    1 NMtDS0=    0 NMtDT0=    0
 Symmetry not used in FoFCou.
 Two-electron integral symmetry not used.
 Closed shell SCF:
 Using DIIS extrapolation, IDIIS=  1040.
 NGot=   104857600 LenX=    37195056 LenY=    37169966
 Requested convergence on RMS density matrix=1.00D-08 within 128 cycles.
 Requested convergence on MAX density matrix=1.00D-06.
 Requested convergence on             energy=1.00D-06.
 No special actions if energy rises.

 Cycle   1  Pass 1  IDiag  1:
 E= -192.559951224290    
 DIIS: error= 5.70D-02 at cycle   1 NSaved=   1.
 NSaved= 1 IEnMin= 1 EnMin= -192.559951224290     IErMin= 1 ErrMin= 5.70D-02
 ErrMax= 5.70D-02  0.00D+00 EMaxC= 1.00D-01 BMatC= 4.50D-01 BMatP= 4.50D-01
 IDIUse=3 WtCom= 4.30D-01 WtEn= 5.70D-01
 Coeff-Com:  0.100D+01
 Coeff-En:   0.100D+01
 Coeff:      0.100D+01
 Gap=     0.427 Goal=   None    Shift=    0.000
 GapD=    0.427 DampG=2.000 DampE=0.500 DampFc=1.0000 IDamp=-1.
 RMSDP=4.81D-03 MaxDP=8.29D-02              OVMax= 1.74D-01

 Cycle   2  Pass 1  IDiag  1:
 E= -192.783088574719     Delta-E=       -0.223137350429 Rises=F Damp=F
 DIIS: error= 3.11D-02 at cycle   2 NSaved=   2.
 NSaved= 2 IEnMin= 2 EnMin= -192.783088574719     IErMin= 2 ErrMin= 3.11D-02
 ErrMax= 3.11D-02  0.00D+00 EMaxC= 1.00D-01 BMatC= 5.60D-02 BMatP= 4.50D-01
 IDIUse=3 WtCom= 6.89D-01 WtEn= 3.11D-01
 Coeff-Com:  0.193D+00 0.807D+00
 Coeff-En:   0.000D+00 0.100D+01
 Coeff:      0.133D+00 0.867D+00
 Gap=     0.388 Goal=   None    Shift=    0.000
 RMSDP=4.71D-03 MaxDP=1.60D-01 DE=-2.23D-01 OVMax= 6.98D-02

 Cycle   3  Pass 1  IDiag  1:
 E= -192.832028097947     Delta-E=       -0.048939523228 Rises=F Damp=F
 DIIS: error= 1.00D-02 at cycle   3 NSaved=   3.
 NSaved= 3 IEnMin= 3 EnMin= -192.832028097947     IErMin= 3 ErrMin= 1.00D-02
 ErrMax= 1.00D-02  0.00D+00 EMaxC= 1.00D-01 BMatC= 6.60D-03 BMatP= 5.60D-02
 IDIUse=3 WtCom= 9.00D-01 WtEn= 1.00D-01
 Coeff-Com: -0.222D-01 0.228D+00 0.795D+00
 Coeff-En:   0.000D+00 0.000D+00 0.100D+01
 Coeff:     -0.200D-01 0.205D+00 0.815D+00
 Gap=     0.348 Goal=   None    Shift=    0.000
 RMSDP=6.56D-04 MaxDP=2.11D-02 DE=-4.89D-02 OVMax= 1.84D-02

 Cycle   4  Pass 1  IDiag  1:
 E= -192.838488390425     Delta-E=       -0.006460292478 Rises=F Damp=F
 DIIS: error= 1.29D-03 at cycle   4 NSaved=   4.
 NSaved= 4 IEnMin= 4 EnMin= -192.838488390425     IErMin= 4 ErrMin= 1.29D-03
 ErrMax= 1.29D-03  0.00D+00 EMaxC= 1.00D-01 BMatC= 5.59D-05 BMatP= 6.60D-03
 IDIUse=3 WtCom= 9.87D-01 WtEn= 1.29D-02
 Coeff-Com: -0.121D-02-0.291D-01-0.226D-01 0.105D+01
 Coeff-En:   0.000D+00 0.000D+00 0.000D+00 0.100D+01
 Coeff:     -0.120D-02-0.287D-01-0.223D-01 0.105D+01
 Gap=     0.349 Goal=   None    Shift=    0.000
 RMSDP=1.98D-04 MaxDP=2.52D-03 DE=-6.46D-03 OVMax= 3.70D-03

 Cycle   5  Pass 1  IDiag  1:
 E= -192.838607246953     Delta-E=       -0.000118856527 Rises=F Damp=F
 DIIS: error= 5.27D-04 at cycle   5 NSaved=   5.
 NSaved= 5 IEnMin= 5 EnMin= -192.838607246953     IErMin= 5 ErrMin= 5.27D-04
 ErrMax= 5.27D-04  0.00D+00 EMaxC= 1.00D-01 BMatC= 4.22D-06 BMatP= 5.59D-05
 IDIUse=3 WtCom= 9.95D-01 WtEn= 5.27D-03
 Coeff-Com:  0.134D-02-0.951D-02-0.431D-01-0.191D+00 0.124D+01
 Coeff-En:   0.000D+00 0.000D+00 0.000D+00 0.000D+00 0.100D+01
 Coeff:      0.133D-02-0.946D-02-0.428D-01-0.190D+00 0.124D+01
 Gap=     0.350 Goal=   None    Shift=    0.000
 RMSDP=7.60D-05 MaxDP=1.26D-03 DE=-1.19D-04 OVMax= 2.75D-03

 Cycle   6  Pass 1  IDiag  1:
 E= -192.838622640860     Delta-E=       -0.000015393907 Rises=F Damp=F
 DIIS: error= 1.76D-04 at cycle   6 NSaved=   6.
 NSaved= 6 IEnMin= 6 EnMin= -192.838622640860     IErMin= 6 ErrMin= 1.76D-04
 ErrMax= 1.76D-04  0.00D+00 EMaxC= 1.00D-01 BMatC= 5.55D-07 BMatP= 4.22D-06
 IDIUse=3 WtCom= 9.98D-01 WtEn= 1.76D-03
 Coeff-Com:  0.441D-03-0.138D-02-0.108D-01-0.107D+00 0.347D+00 0.772D+00
 Coeff-En:   0.000D+00 0.000D+00 0.000D+00 0.000D+00 0.000D+00 0.100D+01
 Coeff:      0.440D-03-0.138D-02-0.107D-01-0.107D+00 0.346D+00 0.773D+00
 Gap=     0.350 Goal=   None    Shift=    0.000
 RMSDP=1.52D-05 MaxDP=3.38D-04 DE=-1.54D-05 OVMax= 5.93D-04

 Cycle   7  Pass 1  IDiag  1:
 E= -192.838623712995     Delta-E=       -0.000001072135 Rises=F Damp=F
 DIIS: error= 6.02D-05 at cycle   7 NSaved=   7.
 NSaved= 7 IEnMin= 7 EnMin= -192.838623712995     IErMin= 7 ErrMin= 6.02D-05
 ErrMax= 6.02D-05  0.00D+00 EMaxC= 1.00D-01 BMatC= 5.69D-08 BMatP= 5.55D-07
 IDIUse=1 WtCom= 1.00D+00 WtEn= 0.00D+00
 Coeff-Com: -0.250D-03 0.195D-02 0.870D-02 0.318D-01-0.231D+00 0.164D-02
 Coeff-Com:  0.119D+01
 Coeff:     -0.250D-03 0.195D-02 0.870D-02 0.318D-01-0.231D+00 0.164D-02
 Coeff:      0.119D+01
 Gap=     0.350 Goal=   None    Shift=    0.000
 RMSDP=1.11D-05 MaxDP=2.68D-04 DE=-1.07D-06 OVMax= 4.14D-04

 Cycle   8  Pass 1  IDiag  1:
 E= -192.838623938223     Delta-E=       -0.000000225229 Rises=F Damp=F
 DIIS: error= 9.08D-06 at cycle   8 NSaved=   8.
 NSaved= 8 IEnMin= 8 EnMin= -192.838623938223     IErMin= 8 ErrMin= 9.08D-06
 ErrMax= 9.08D-06  0.00D+00 EMaxC= 1.00D-01 BMatC= 1.91D-09 BMatP= 5.69D-08
 IDIUse=1 WtCom= 1.00D+00 WtEn= 0.00D+00
 Coeff-Com:  0.253D-04-0.292D-03-0.135D-02-0.296D-02 0.395D-01-0.499D-01
 Coeff-Com: -0.273D+00 0.129D+01
 Coeff:      0.253D-04-0.292D-03-0.135D-02-0.296D-02 0.395D-01-0.499D-01
 Coeff:     -0.273D+00 0.129D+01
 Gap=     0.350 Goal=   None    Shift=    0.000
 RMSDP=2.07D-06 MaxDP=6.13D-05 DE=-2.25D-07 OVMax= 6.74D-05

 Cycle   9  Pass 1  IDiag  1:
 E= -192.838623945942     Delta-E=       -0.000000007719 Rises=F Damp=F
 DIIS: error= 8.50D-07 at cycle   9 NSaved=   9.
 NSaved= 9 IEnMin= 9 EnMin= -192.838623945942     IErMin= 9 ErrMin= 8.50D-07
 ErrMax= 8.50D-07  0.00D+00 EMaxC= 1.00D-01 BMatC= 4.44D-11 BMatP= 1.91D-09
 IDIUse=1 WtCom= 1.00D+00 WtEn= 0.00D+00
 Coeff-Com:  0.440D-05-0.276D-04-0.110D-03-0.540D-03 0.254D-02 0.213D-02
 Coeff-Com: -0.452D-02-0.107D+00 0.111D+01
 Coeff:      0.440D-05-0.276D-04-0.110D-03-0.540D-03 0.254D-02 0.213D-02
 Coeff:     -0.452D-02-0.107D+00 0.111D+01
 Gap=     0.350 Goal=   None    Shift=    0.000
 RMSDP=2.49D-07 MaxDP=4.56D-06 DE=-7.72D-09 OVMax= 6.42D-06

 Cycle  10  Pass 1  IDiag  1:
 E= -192.838623946063     Delta-E=       -0.000000000121 Rises=F Damp=F
 DIIS: error= 2.68D-07 at cycle  10 NSaved=  10.
 NSaved=10 IEnMin=10 EnMin= -192.838623946063     IErMin=10 ErrMin= 2.68D-07
 ErrMax= 2.68D-07  0.00D+00 EMaxC= 1.00D-01 BMatC= 4.92D-12 BMatP= 4.44D-11
 IDIUse=1 WtCom= 1.00D+00 WtEn= 0.00D+00
 Coeff-Com: -0.109D-05 0.169D-04 0.798D-04 0.153D-03-0.251D-02 0.347D-02
 Coeff-Com:  0.209D-01-0.112D+00 0.171D+00 0.919D+00
 Coeff:     -0.109D-05 0.169D-04 0.798D-04 0.153D-03-0.251D-02 0.347D-02
 Coeff:      0.209D-01-0.112D+00 0.171D+00 0.919D+00
 Gap=     0.350 Goal=   None    Shift=    0.000
 RMSDP=6.71D-08 MaxDP=2.10D-06 DE=-1.21D-10 OVMax= 9.92D-07

 Cycle  11  Pass 1  IDiag  1:
 E= -192.838623946071     Delta-E=       -0.000000000008 Rises=F Damp=F
 DIIS: error= 6.77D-08 at cycle  11 NSaved=  11.
 NSaved=11 IEnMin=11 EnMin= -192.838623946071     IErMin=11 ErrMin= 6.77D-08
 ErrMax= 6.77D-08  0.00D+00 EMaxC= 1.00D-01 BMatC= 2.61D-13 BMatP= 4.92D-12
 IDIUse=1 WtCom= 1.00D+00 WtEn= 0.00D+00
 Coeff-Com: -0.178D-06 0.777D-06 0.779D-06 0.329D-04-0.117D-04-0.576D-03
 Coeff-Com: -0.275D-03 0.112D-01-0.698D-01-0.357D-01 0.110D+01
 Coeff:     -0.178D-06 0.777D-06 0.779D-06 0.329D-04-0.117D-04-0.576D-03
 Coeff:     -0.275D-03 0.112D-01-0.698D-01-0.357D-01 0.110D+01
 Gap=     0.350 Goal=   None    Shift=    0.000
 RMSDP=1.84D-08 MaxDP=6.76D-07 DE=-8.01D-12 OVMax= 2.50D-07

 Cycle  12  Pass 1  IDiag  1:
 E= -192.838623946072     Delta-E=       -0.000000000001 Rises=F Damp=F
 DIIS: error= 2.53D-08 at cycle  12 NSaved=  12.
 NSaved=12 IEnMin=12 EnMin= -192.838623946072     IErMin=12 ErrMin= 2.53D-08
 ErrMax= 2.53D-08  0.00D+00 EMaxC= 1.00D-01 BMatC= 2.32D-14 BMatP= 2.61D-13
 IDIUse=1 WtCom= 1.00D+00 WtEn= 0.00D+00
 Coeff-Com:  0.103D-06-0.116D-05-0.483D-05-0.171D-04 0.155D-03-0.178D-03
 Coeff-Com: -0.895D-03 0.332D-02 0.673D-02-0.371D-01-0.294D+00 0.132D+01
 Coeff:      0.103D-06-0.116D-05-0.483D-05-0.171D-04 0.155D-03-0.178D-03
 Coeff:     -0.895D-03 0.332D-02 0.673D-02-0.371D-01-0.294D+00 0.132D+01
 Gap=     0.350 Goal=   None    Shift=    0.000
 RMSDP=5.95D-09 MaxDP=1.58D-07 DE=-6.82D-13 OVMax= 9.85D-08

 SCF Done:  E(RHF) =  -192.838623946     A.U. after   12 cycles
            NFock= 12  Conv=0.59D-08     -V/T= 2.0012
 KE= 1.926074293976D+02 PE=-7.619309743045D+02 EE= 2.198446624148D+02
 Leave Link  502 at Thu Feb 13 09:48:36 2025, MaxMem=   104857600 cpu:               1.1 elap:               1.1
 (Enter /sw/cluster/pub/apps//g16/l801.exe)
 ExpMin= 3.60D-02 ExpMax= 4.56D+03 ExpMxC= 6.82D+02 IAcc=3 IRadAn=         5 AccDes= 0.00D+00
 HarFok:  IExCor=  205 AccDes= 0.00D+00 IRadAn=         5 IDoV=-2 UseB2=F ITyADJ=14
 ICtDFT= 12500011 ScaDFX=  1.000000  1.000000  1.000000  1.000000
 Largest valence mixing into a core orbital is  1.38D-04
 Largest core mixing into a valence orbital is  4.10D-05
 Range of M.O.s used for correlation:     6   152
 NBasis=   152 NAE=    18 NBE=    18 NFC=     5 NFV=     0
 NROrb=    147 NOA=    13 NOB=    13 NVA=   134 NVB=   134

 **** Warning!!: The largest alpha MO coefficient is  0.12774403D+03

 Leave Link  801 at Thu Feb 13 09:48:36 2025, MaxMem=   104857600 cpu:               0.1 elap:               0.1
 (Enter /sw/cluster/pub/apps//g16/l906.exe)
 Frozen-core derivative calculation, NFC=   5 NFV=   0.
 FulOut=F Deriv=T AODrv=F NAtomX=    11
   MMem=          51  MDisk=          13 MDiskD=          13
  W3Min=      429552 MinDsk=      706103 NBas6D=         157
 NBas2D=       12616    NTT=       12403    LW2=     2040000
    MDV=   104572330 MDiskM=        9073 NBas2p=       12603
 Fully direct method using O(ONN) memory.
 IMap=   1   2   3   4   5   6   7   8   9  10  11  12  13  14  15  16  17  18
 JobTyp=1 Pass  1:  I=   6 to  18 NPSUse=  1 ParTrn=F ParDer=F DoDerP=T.
 Spin components of T(2) and E(2):
     alpha-alpha T2 =       0.3263499578D-01 E2=     -0.8756552035D-01
     alpha-beta  T2 =       0.1892726128D+00 E2=     -0.5274289437D+00
     beta-beta   T2 =       0.3263499578D-01 E2=     -0.8756552035D-01
 The integrals were generated   1 times.
 ANorm=    0.1120063661D+01
 E2 =    -0.7025599844D+00 EUMP2 =    -0.19354118393046D+03
 Leave Link  906 at Thu Feb 13 09:48:39 2025, MaxMem=   104857600 cpu:               2.6 elap:               2.6
 (Enter /sw/cluster/pub/apps//g16/l1002.exe)
 Minotr:  Closed shell wavefunction.
          Computing MP2/KS-MP2 derivatives.
          Using Z-Vector for PSCF gradient.
          Skipping F1 and S1 gradient terms here.
          Frozen-core window.
          Direct CPHF calculation.
          Differentiating once with respect to electric field.
                with respect to dipole field.
          Electric field/nuclear overlap derivatives assumed to be zero.
          Requested convergence is 1.0D-10 RMS, and 1.0D-09 maximum.
          NewPWx=F KeepS1=T KeepF1=T KeepIn=T MapXYZ=F SortEE=F KeepMc=T.
 Keep R1 ints in memory in canonical form, NReq=69584896.
 FoFCou: FMM=F IPFlag=           0 FMFlag=           0 FMFlg1=           0
         NFxFlg=           0 DoJE=F BraDBF=F KetDBF=F FulRan=T
         wScrn=  0.000000 ICntrl=       600 IOpCl=  0 I1Cent=           0 NGrid=           0
         NMat0=    1 NMatS0=  11628 NMatT0=    0 NMatD0=    1 NMtDS0=    0 NMtDT0=    0
 Symmetry not used in FoFCou.
 Two-electron integral symmetry not used.
          MDV=     104857600 using IRadAn=       5.
          Solving linear equations separately, MaxMat=       0.
          There are     1 degrees of freedom in the 1st order CPHF.  IDoFFX=0 NUNeed=     1.
 LinEq1:  Iter=  0 NonCon=     1 RMS=3.83D-03 Max=6.93D-02 NDo=     1
 AX will form     1 AO Fock derivatives at one time.
 LinEq1:  Iter=  1 NonCon=     1 RMS=9.56D-04 Max=1.20D-02 NDo=     1
 LinEq1:  Iter=  2 NonCon=     1 RMS=3.48D-04 Max=6.16D-03 NDo=     1
 LinEq1:  Iter=  3 NonCon=     1 RMS=7.60D-05 Max=1.29D-03 NDo=     1
 LinEq1:  Iter=  4 NonCon=     1 RMS=1.60D-05 Max=3.53D-04 NDo=     1
 LinEq1:  Iter=  5 NonCon=     1 RMS=6.87D-06 Max=1.65D-04 NDo=     1
 LinEq1:  Iter=  6 NonCon=     1 RMS=1.61D-06 Max=2.24D-05 NDo=     1
 LinEq1:  Iter=  7 NonCon=     1 RMS=3.61D-07 Max=4.55D-06 NDo=     1
 LinEq1:  Iter=  8 NonCon=     1 RMS=1.00D-07 Max=1.37D-06 NDo=     1
 LinEq1:  Iter=  9 NonCon=     1 RMS=1.45D-08 Max=1.27D-07 NDo=     1
 LinEq1:  Iter= 10 NonCon=     1 RMS=2.65D-09 Max=2.67D-08 NDo=     1
 LinEq1:  Iter= 11 NonCon=     1 RMS=3.41D-10 Max=3.14D-09 NDo=     1
 LinEq1:  Iter= 12 NonCon=     0 RMS=4.99D-11 Max=4.24D-10 NDo=     1
 Linear equations converged to 1.000D-10 1.000D-09 after    12 iterations.
 End of Minotr F.D. properties file   721 does not exist.
 End of Minotr F.D. properties file   722 does not exist.
 End of Minotr F.D. properties file   788 does not exist.
 Leave Link 1002 at Thu Feb 13 09:48:40 2025, MaxMem=   104857600 cpu:               1.2 elap:               1.2
 (Enter /sw/cluster/pub/apps//g16/l601.exe)
 Copying SCF densities to generalized density rwf, IOpCl= 0 IROHF=0.

 **********************************************************************

            Population analysis using the MP2 density.

 **********************************************************************

 Alpha  occ. eigenvalues --  -11.23265 -11.23003 -11.22949 -11.22802 -11.22784
 Alpha  occ. eigenvalues --   -1.15188  -0.96545  -0.95558  -0.75613  -0.72748
 Alpha  occ. eigenvalues --   -0.69651  -0.59203  -0.56256  -0.52913  -0.50845
 Alpha  occ. eigenvalues --   -0.50310  -0.41289  -0.30789
 Alpha virt. eigenvalues --    0.04211   0.05064   0.05257   0.07062   0.07158
 Alpha virt. eigenvalues --    0.07722   0.10326   0.13215   0.14521   0.14885
 Alpha virt. eigenvalues --    0.15118   0.16007   0.16255   0.18520   0.19014
 Alpha virt. eigenvalues --    0.19283   0.20346   0.20647   0.20675   0.21043
 Alpha virt. eigenvalues --    0.21088   0.22615   0.23279   0.23463   0.26203
 Alpha virt. eigenvalues --    0.27454   0.28312   0.28570   0.33932   0.35190
 Alpha virt. eigenvalues --    0.38985   0.39002   0.42024   0.43125   0.43789
 Alpha virt. eigenvalues --    0.46291   0.53584   0.55678   0.62322   0.63245
 Alpha virt. eigenvalues --    0.63691   0.66730   0.71133   0.74085   0.74793
 Alpha virt. eigenvalues --    0.75132   0.75227   0.80710   0.82316   0.84014
 Alpha virt. eigenvalues --    0.85973   0.88115   0.89524   0.94192   0.98076
 Alpha virt. eigenvalues --    0.98793   1.00077   1.00614   1.01598   1.03412
 Alpha virt. eigenvalues --    1.09840   1.11468   1.14140   1.21029   1.22020
 Alpha virt. eigenvalues --    1.22857   1.26143   1.33565   1.37719   1.46714
 Alpha virt. eigenvalues --    1.66007   1.68622   1.73129   1.81977   1.82721
 Alpha virt. eigenvalues --    1.82855   1.83907   1.84020   1.84899   1.91328
 Alpha virt. eigenvalues --    1.93793   1.99004   2.01808   2.10063   2.11230
 Alpha virt. eigenvalues --    2.13391   2.14585   2.18784   2.19823   2.24269
 Alpha virt. eigenvalues --    2.24638   2.27611   2.33773   2.41695   2.46980
 Alpha virt. eigenvalues --    2.55970   2.58571   2.63925   2.64550   2.74095
 Alpha virt. eigenvalues --    2.79001   2.80825   2.88476   2.90694   2.97487
 Alpha virt. eigenvalues --    2.98082   2.98090   3.04280   3.05821   3.06441
 Alpha virt. eigenvalues --    3.10429   3.12005   3.17920   3.21620   3.36173
 Alpha virt. eigenvalues --    3.39106   3.42500   3.47140   3.60509   3.73084
 Alpha virt. eigenvalues --    3.78483   3.90762   3.92954   4.16596   4.46076
 Alpha virt. eigenvalues --    4.46772   4.49993   4.56863   5.01554  24.83715
 Alpha virt. eigenvalues --   24.98294  25.06650  25.38678  25.41758
          Condensed to atoms (all electrons):
               1          2          3          4          5          6
     1  C    7.414770  -1.597126   0.873206   0.443029  -1.169087   0.514687
     2  C   -1.597126   7.414770  -1.169087   0.443029   0.873206  -0.151758
     3  C    0.873206  -1.169087   6.966803  -1.011307  -0.073478   0.037066
     4  C    0.443029   0.443029  -1.011307   7.301166  -1.011307   0.052820
     5  C   -1.169087   0.873206  -0.073478  -1.011307   6.966803  -0.160001
     6  H    0.514687  -0.151758   0.037066   0.052820  -0.160001   0.551245
     7  H   -0.151758   0.514687  -0.160001   0.052820   0.037066  -0.008257
     8  H    0.031122  -0.139013   0.494321  -0.139690   0.032187   0.000065
     9  H    0.006691   0.006691  -0.044507   0.401078  -0.044507  -0.000757
    10  H    0.006691   0.006691  -0.044507   0.401078  -0.044507  -0.000757
    11  H   -0.139013   0.031122   0.032187  -0.139690   0.494321  -0.013413
               7          8          9         10         11
     1  C   -0.151758   0.031122   0.006691   0.006691  -0.139013
     2  C    0.514687  -0.139013   0.006691   0.006691   0.031122
     3  C   -0.160001   0.494321  -0.044507  -0.044507   0.032187
     4  C    0.052820  -0.139690   0.401078   0.401078  -0.139690
     5  C    0.037066   0.032187  -0.044507  -0.044507   0.494321
     6  H   -0.008257   0.000065  -0.000757  -0.000757  -0.013413
     7  H    0.551245  -0.013413  -0.000757  -0.000757   0.000065
     8  H   -0.013413   0.545407  -0.001449  -0.001449   0.001739
     9  H   -0.000757  -0.001449   0.585818  -0.068037  -0.001449
    10  H   -0.000757  -0.001449  -0.068037   0.585818  -0.001449
    11  H    0.000065   0.001739  -0.001449  -0.001449   0.545407
 Mulliken charges:
               1
     1  C   -0.233211
     2  C   -0.233211
     3  C    0.099305
     4  C   -0.793026
     5  C    0.099305
     6  H    0.179060
     7  H    0.179060
     8  H    0.190172
     9  H    0.161187
    10  H    0.161187
    11  H    0.190172
 Sum of Mulliken charges =  -0.00000
 Mulliken charges with hydrogens summed into heavy atoms:
               1
     1  C   -0.054150
     2  C   -0.054150
     3  C    0.289477
     4  C   -0.470652
     5  C    0.289477
 Electronic spatial extent (au):  <R**2>=            334.0712
 Charge=             -0.0000 electrons
 Dipole moment (field-independent basis, Debye):
    X=             -0.0000    Y=              0.4406    Z=              0.0000  Tot=              0.4406
 Quadrupole moment (field-independent basis, Debye-Ang):
   XX=            -29.5122   YY=            -27.8378   ZZ=            -33.8600
   XY=              0.0000   XZ=              0.0000   YZ=             -0.0000
 Traceless Quadrupole moment (field-independent basis, Debye-Ang):
   XX=              0.8911   YY=              2.5656   ZZ=             -3.4567
   XY=              0.0000   XZ=              0.0000   YZ=             -0.0000
 Octapole moment (field-independent basis, Debye-Ang**2):
  XXX=             -0.0000  YYY=             -2.2975  ZZZ=              0.0000  XYY=              0.0000
  XXY=              0.3564  XXZ=              0.0000  XZZ=             -0.0000  YZZ=              2.9010
  YYZ=             -0.0000  XYZ=              0.0000
 Hexadecapole moment (field-independent basis, Debye-Ang**3):
 XXXX=           -202.2179 YYYY=           -203.8549 ZZZZ=            -49.1675 XXXY=              0.0000
 XXXZ=              0.0000 YYYX=             -0.0000 YYYZ=             -0.0000 ZZZX=              0.0000
 ZZZY=              0.0000 XXYY=            -66.8883 XXZZ=            -51.1793 YYZZ=            -43.1930
 XXYZ=              0.0000 YYXZ=             -0.0000 ZZXY=             -0.0000
 N-N= 1.566402585461D+02 E-N=-7.625681849943D+02  KE= 1.934393622343D+02
 No NMR shielding tensors so no spin-rotation constants.
 Leave Link  601 at Thu Feb 13 09:48:40 2025, MaxMem=   104857600 cpu:               0.0 elap:               0.0
 (Enter /sw/cluster/pub/apps//g16/l9999.exe)
 1\1\GINC-N01\SP\RMP2-FC\6-311++G(d,p)\C5H6\UNKNOWN\13-Feb-2025\0\\#P M
 P2/6-311++G** nosymm Density=MP2\\CH2\\0,1\C,0,0.73411506,-0.99016108,
 0.\C,0,-0.73411506,-0.99016108,0.\C,0,-1.17931809,0.28165302,0.\C,0,0.
 ,1.21605209,0.\C,0,1.17931809,0.28165302,0.\H,0,1.3478881,-1.88184814,
 0.\H,0,-1.3478881,-1.88184814,0.\H,0,-2.21046217,0.60743905,0.\H,0,0.,
 1.87729714,-0.87714607\H,0,0.,1.87729714,0.87714607\H,0,2.21046217,0.6
 0743905,0.\\Version=ES64L-G16RevA.03\HF=-192.8386239\MP2=-193.5411839\
 RMSD=5.947e-09\Dipole=0.,0.1733346,0.\Quadrupole=0.6625367,1.9074236,-
 2.5699603,0.,0.,0.\PG=C02V [C2(C1),SGV(C4H4),SGV'(H2)]\\@


 HAPPINESS IS NOT HAVING WHAT YOU WANT --
 HAPPINESS IS WANTING WHAT YOU HAVE!

              -- FROM MRS. SEVERN'S DESK
 Job cpu time:       0 days  0 hours  0 minutes  5.8 seconds.
 Elapsed time:       0 days  0 hours  0 minutes  5.9 seconds.
 File lengths (MBytes):  RWF=     11 Int=      0 D2E=      0 Chk=      4 Scr=      1
 Normal termination of Gaussian 16 at Thu Feb 13 09:48:40 2025.
