CH2                                                                     
SP        RMP2-FC                                                     6-311++G(d,p)       
Number of atoms                            I               11
Info1-9                                    I   N=           9
          18          18           0           0           0         110
           1           2           1
Full Title                                 C   N=           1
CH2         
Route                                      C   N=           3
#P MP2/6-311++G** nosymm Density=MP2
Charge                                     I                0
Multiplicity                               I                1
Number of electrons                        I               36
Number of alpha electrons                  I               18
Number of beta electrons                   I               18
Number of basis functions                  I              152
Number of independent functions            I              152
Number of point charges in /Mol/           I                0
Number of translation vectors              I                0
Atomic numbers                             I   N=          11
           6           6           6           6           6           1
           1           1           1           1           1
Nuclear charges                            R   N=          11
  6.00000000E+00  6.00000000E+00  6.00000000E+00  6.00000000E+00  6.00000000E+00
  1.00000000E+00  1.00000000E+00  1.00000000E+00  1.00000000E+00  1.00000000E+00
  1.00000000E+00
Current cartesian coordinates              R   N=          33
  1.38727641E+00 -1.87113326E+00  0.00000000E+00 -1.38727641E+00 -1.87113326E+00
  0.00000000E+00 -2.22858820E+00  5.32247070E-01  0.00000000E+00  0.00000000E+00
  2.29800540E+00  0.00000000E+00  2.22858820E+00  5.32247070E-01  0.00000000E+00
  2.54713936E+00 -3.55617759E+00  0.00000000E+00 -2.54713936E+00 -3.55617759E+00
  0.00000000E+00 -4.17716811E+00  1.14789344E+00  0.00000000E+00  0.00000000E+00
  3.54757745E+00 -1.65756584E+00  0.00000000E+00  3.54757745E+00  1.65756584E+00
  4.17716811E+00  1.14789344E+00  0.00000000E+00
Number of symbols in /Mol/                 I                0
Force Field                                I                0
Atom Types                                 C   N=          11
                                                            
                                                            
            
Int Atom Types                             I   N=          11
           0           0           0           0           0           0
           0           0           0           0           0
MM charges                                 R   N=          11
  0.00000000E+00  0.00000000E+00  0.00000000E+00  0.00000000E+00  0.00000000E+00
  0.00000000E+00  0.00000000E+00  0.00000000E+00  0.00000000E+00  0.00000000E+00
  0.00000000E+00
Integer atomic weights                     I   N=          11
          12          12          12          12          12           1
           1           1           1           1           1
Real atomic weights                        R   N=          11
  1.20000000E+01  1.20000000E+01  1.20000000E+01  1.20000000E+01  1.20000000E+01
  1.00782504E+00  1.00782504E+00  1.00782504E+00  1.00782504E+00  1.00782504E+00
  1.00782504E+00
Atom fragment info                         I   N=          11
           0           0           0           0           0           0
           0           0           0           0           0
Atom residue num                           I   N=          11
           0           0           0           0           0           0
           0           0           0           0           0
Nuclear spins                              I   N=          11
           0           0           0           0           0           1
           1           1           1           1           1
Nuclear ZEff                               R   N=          11
 -3.60000000E+00 -3.60000000E+00 -3.60000000E+00 -3.60000000E+00 -3.60000000E+00
 -1.00000000E+00 -1.00000000E+00 -1.00000000E+00 -1.00000000E+00 -1.00000000E+00
 -1.00000000E+00
Nuclear ZNuc                               R   N=          11
  6.00000000E+00  6.00000000E+00  6.00000000E+00  6.00000000E+00  6.00000000E+00
  1.00000000E+00  1.00000000E+00  1.00000000E+00  1.00000000E+00  1.00000000E+00
  1.00000000E+00
Nuclear QMom                               R   N=          11
  0.00000000E+00  0.00000000E+00  0.00000000E+00  0.00000000E+00  0.00000000E+00
  0.00000000E+00  0.00000000E+00  0.00000000E+00  0.00000000E+00  0.00000000E+00
  0.00000000E+00
Nuclear GFac                               R   N=          11
  0.00000000E+00  0.00000000E+00  0.00000000E+00  0.00000000E+00  0.00000000E+00
  2.79284600E+00  2.79284600E+00  2.79284600E+00  2.79284600E+00  2.79284600E+00
  2.79284600E+00
MicOpt                                     I   N=          11
          -1          -1          -1          -1          -1          -1
          -1          -1          -1          -1          -1
Number of residues                         I                0
Number of secondary structures             I                0
Number of contracted shells                I               60
Number of primitive shells                 I              107
Pure/Cartesian d shells                    I                0
Pure/Cartesian f shells                    I                0
Highest angular momentum                   I                2
Largest degree of contraction              I                6
Shell types                                I   N=          60
           0          -1          -1          -1          -1          -2
           0          -1          -1          -1          -1          -2
           0          -1          -1          -1          -1          -2
           0          -1          -1          -1          -1          -2
           0          -1          -1          -1          -1          -2
           0           0           0           0           1           0
           0           0           0           1           0           0
           0           0           1           0           0           0
           0           1           0           0           0           0
           1           0           0           0           0           1
Number of primitives per shell             I   N=          60
           6           3           1           1           1           1
           6           3           1           1           1           1
           6           3           1           1           1           1
           6           3           1           1           1           1
           6           3           1           1           1           1
           3           1           1           1           1           3
           1           1           1           1           3           1
           1           1           1           3           1           1
           1           1           3           1           1           1
           1           3           1           1           1           1
Shell to atom map                          I   N=          60
           1           1           1           1           1           1
           2           2           2           2           2           2
           3           3           3           3           3           3
           4           4           4           4           4           4
           5           5           5           5           5           5
           6           6           6           6           6           7
           7           7           7           7           8           8
           8           8           8           9           9           9
           9           9          10          10          10          10
          10          11          11          11          11          11
Primitive exponents                        R   N=         107
  4.56324000E+03  6.82024000E+02  1.54973000E+02  4.44553000E+01  1.30290000E+01
  1.82773000E+00  2.09642000E+01  4.80331000E+00  1.45933000E+00  4.83456000E-01
  1.45585000E-01  4.38000000E-02  6.26000000E-01  4.56324000E+03  6.82024000E+02
  1.54973000E+02  4.44553000E+01  1.30290000E+01  1.82773000E+00  2.09642000E+01
  4.80331000E+00  1.45933000E+00  4.83456000E-01  1.45585000E-01  4.38000000E-02
  6.26000000E-01  4.56324000E+03  6.82024000E+02  1.54973000E+02  4.44553000E+01
  1.30290000E+01  1.82773000E+00  2.09642000E+01  4.80331000E+00  1.45933000E+00
  4.83456000E-01  1.45585000E-01  4.38000000E-02  6.26000000E-01  4.56324000E+03
  6.82024000E+02  1.54973000E+02  4.44553000E+01  1.30290000E+01  1.82773000E+00
  2.09642000E+01  4.80331000E+00  1.45933000E+00  4.83456000E-01  1.45585000E-01
  4.38000000E-02  6.26000000E-01  4.56324000E+03  6.82024000E+02  1.54973000E+02
  4.44553000E+01  1.30290000E+01  1.82773000E+00  2.09642000E+01  4.80331000E+00
  1.45933000E+00  4.83456000E-01  1.45585000E-01  4.38000000E-02  6.26000000E-01
  3.38650000E+01  5.09479000E+00  1.15879000E+00  3.25840000E-01  1.02741000E-01
  3.60000000E-02  7.50000000E-01  3.38650000E+01  5.09479000E+00  1.15879000E+00
  3.25840000E-01  1.02741000E-01  3.60000000E-02  7.50000000E-01  3.38650000E+01
  5.09479000E+00  1.15879000E+00  3.25840000E-01  1.02741000E-01  3.60000000E-02
  7.50000000E-01  3.38650000E+01  5.09479000E+00  1.15879000E+00  3.25840000E-01
  1.02741000E-01  3.60000000E-02  7.50000000E-01  3.38650000E+01  5.09479000E+00
  1.15879000E+00  3.25840000E-01  1.02741000E-01  3.60000000E-02  7.50000000E-01
  3.38650000E+01  5.09479000E+00  1.15879000E+00  3.25840000E-01  1.02741000E-01
  3.60000000E-02  7.50000000E-01
Contraction coefficients                   R   N=         107
  1.96665025E-03  1.52306019E-02  7.61269097E-02  2.60801033E-01  6.16462078E-01
  2.21006028E-01  1.14660081E-01  9.19999648E-01 -3.03068213E-03  1.00000000E+00
  1.00000000E+00  1.00000000E+00  1.00000000E+00  1.96665025E-03  1.52306019E-02
  7.61269097E-02  2.60801033E-01  6.16462078E-01  2.21006028E-01  1.14660081E-01
  9.19999648E-01 -3.03068213E-03  1.00000000E+00  1.00000000E+00  1.00000000E+00
  1.00000000E+00  1.96665025E-03  1.52306019E-02  7.61269097E-02  2.60801033E-01
  6.16462078E-01  2.21006028E-01  1.14660081E-01  9.19999648E-01 -3.03068213E-03
  1.00000000E+00  1.00000000E+00  1.00000000E+00  1.00000000E+00  1.96665025E-03
  1.52306019E-02  7.61269097E-02  2.60801033E-01  6.16462078E-01  2.21006028E-01
  1.14660081E-01  9.19999648E-01 -3.03068213E-03  1.00000000E+00  1.00000000E+00
  1.00000000E+00  1.00000000E+00  1.96665025E-03  1.52306019E-02  7.61269097E-02
  2.60801033E-01  6.16462078E-01  2.21006028E-01  1.14660081E-01  9.19999648E-01
 -3.03068213E-03  1.00000000E+00  1.00000000E+00  1.00000000E+00  1.00000000E+00
  2.54938145E-02  1.90373109E-01  8.52161486E-01  1.00000000E+00  1.00000000E+00
  1.00000000E+00  1.00000000E+00  2.54938145E-02  1.90373109E-01  8.52161486E-01
  1.00000000E+00  1.00000000E+00  1.00000000E+00  1.00000000E+00  2.54938145E-02
  1.90373109E-01  8.52161486E-01  1.00000000E+00  1.00000000E+00  1.00000000E+00
  1.00000000E+00  2.54938145E-02  1.90373109E-01  8.52161486E-01  1.00000000E+00
  1.00000000E+00  1.00000000E+00  1.00000000E+00  2.54938145E-02  1.90373109E-01
  8.52161486E-01  1.00000000E+00  1.00000000E+00  1.00000000E+00  1.00000000E+00
  2.54938145E-02  1.90373109E-01  8.52161486E-01  1.00000000E+00  1.00000000E+00
  1.00000000E+00  1.00000000E+00
P(S=P) Contraction coefficients            R   N=         107
  0.00000000E+00  0.00000000E+00  0.00000000E+00  0.00000000E+00  0.00000000E+00
  0.00000000E+00  4.02486927E-02  2.37593957E-01  8.15853851E-01  1.00000000E+00
  1.00000000E+00  1.00000000E+00  0.00000000E+00  0.00000000E+00  0.00000000E+00
  0.00000000E+00  0.00000000E+00  0.00000000E+00  0.00000000E+00  4.02486927E-02
  2.37593957E-01  8.15853851E-01  1.00000000E+00  1.00000000E+00  1.00000000E+00
  0.00000000E+00  0.00000000E+00  0.00000000E+00  0.00000000E+00  0.00000000E+00
  0.00000000E+00  0.00000000E+00  4.02486927E-02  2.37593957E-01  8.15853851E-01
  1.00000000E+00  1.00000000E+00  1.00000000E+00  0.00000000E+00  0.00000000E+00
  0.00000000E+00  0.00000000E+00  0.00000000E+00  0.00000000E+00  0.00000000E+00
  4.02486927E-02  2.37593957E-01  8.15853851E-01  1.00000000E+00  1.00000000E+00
  1.00000000E+00  0.00000000E+00  0.00000000E+00  0.00000000E+00  0.00000000E+00
  0.00000000E+00  0.00000000E+00  0.00000000E+00  4.02486927E-02  2.37593957E-01
  8.15853851E-01  1.00000000E+00  1.00000000E+00  1.00000000E+00  0.00000000E+00
  0.00000000E+00  0.00000000E+00  0.00000000E+00  0.00000000E+00  0.00000000E+00
  0.00000000E+00  0.00000000E+00  0.00000000E+00  0.00000000E+00  0.00000000E+00
  0.00000000E+00  0.00000000E+00  0.00000000E+00  0.00000000E+00  0.00000000E+00
  0.00000000E+00  0.00000000E+00  0.00000000E+00  0.00000000E+00  0.00000000E+00
  0.00000000E+00  0.00000000E+00  0.00000000E+00  0.00000000E+00  0.00000000E+00
  0.00000000E+00  0.00000000E+00  0.00000000E+00  0.00000000E+00  0.00000000E+00
  0.00000000E+00  0.00000000E+00  0.00000000E+00  0.00000000E+00  0.00000000E+00
  0.00000000E+00  0.00000000E+00  0.00000000E+00  0.00000000E+00  0.00000000E+00
  0.00000000E+00  0.00000000E+00
Coordinates of each shell                  R   N=         180
  1.38727641E+00 -1.87113326E+00  0.00000000E+00  1.38727641E+00 -1.87113326E+00
  0.00000000E+00  1.38727641E+00 -1.87113326E+00  0.00000000E+00  1.38727641E+00
 -1.87113326E+00  0.00000000E+00  1.38727641E+00 -1.87113326E+00  0.00000000E+00
  1.38727641E+00 -1.87113326E+00  0.00000000E+00 -1.38727641E+00 -1.87113326E+00
  0.00000000E+00 -1.38727641E+00 -1.87113326E+00  0.00000000E+00 -1.38727641E+00
 -1.87113326E+00  0.00000000E+00 -1.38727641E+00 -1.87113326E+00  0.00000000E+00
 -1.38727641E+00 -1.87113326E+00  0.00000000E+00 -1.38727641E+00 -1.87113326E+00
  0.00000000E+00 -2.22858820E+00  5.32247070E-01  0.00000000E+00 -2.22858820E+00
  5.32247070E-01  0.00000000E+00 -2.22858820E+00  5.32247070E-01  0.00000000E+00
 -2.22858820E+00  5.32247070E-01  0.00000000E+00 -2.22858820E+00  5.32247070E-01
  0.00000000E+00 -2.22858820E+00  5.32247070E-01  0.00000000E+00  0.00000000E+00
  2.29800540E+00  0.00000000E+00  0.00000000E+00  2.29800540E+00  0.00000000E+00
  0.00000000E+00  2.29800540E+00  0.00000000E+00  0.00000000E+00  2.29800540E+00
  0.00000000E+00  0.00000000E+00  2.29800540E+00  0.00000000E+00  0.00000000E+00
  2.29800540E+00  0.00000000E+00  2.22858820E+00  5.32247070E-01  0.00000000E+00
  2.22858820E+00  5.32247070E-01  0.00000000E+00  2.22858820E+00  5.32247070E-01
  0.00000000E+00  2.22858820E+00  5.32247070E-01  0.00000000E+00  2.22858820E+00
  5.32247070E-01  0.00000000E+00  2.22858820E+00  5.32247070E-01  0.00000000E+00
  2.54713936E+00 -3.55617759E+00  0.00000000E+00  2.54713936E+00 -3.55617759E+00
  0.00000000E+00  2.54713936E+00 -3.55617759E+00  0.00000000E+00  2.54713936E+00
 -3.55617759E+00  0.00000000E+00  2.54713936E+00 -3.55617759E+00  0.00000000E+00
 -2.54713936E+00 -3.55617759E+00  0.00000000E+00 -2.54713936E+00 -3.55617759E+00
  0.00000000E+00 -2.54713936E+00 -3.55617759E+00  0.00000000E+00 -2.54713936E+00
 -3.55617759E+00  0.00000000E+00 -2.54713936E+00 -3.55617759E+00  0.00000000E+00
 -4.17716811E+00  1.14789344E+00  0.00000000E+00 -4.17716811E+00  1.14789344E+00
  0.00000000E+00 -4.17716811E+00  1.14789344E+00  0.00000000E+00 -4.17716811E+00
  1.14789344E+00  0.00000000E+00 -4.17716811E+00  1.14789344E+00  0.00000000E+00
  0.00000000E+00  3.54757745E+00 -1.65756584E+00  0.00000000E+00  3.54757745E+00
 -1.65756584E+00  0.00000000E+00  3.54757745E+00 -1.65756584E+00  0.00000000E+00
  3.54757745E+00 -1.65756584E+00  0.00000000E+00  3.54757745E+00 -1.65756584E+00
  0.00000000E+00  3.54757745E+00  1.65756584E+00  0.00000000E+00  3.54757745E+00
  1.65756584E+00  0.00000000E+00  3.54757745E+00  1.65756584E+00  0.00000000E+00
  3.54757745E+00  1.65756584E+00  0.00000000E+00  3.54757745E+00  1.65756584E+00
  4.17716811E+00  1.14789344E+00  0.00000000E+00  4.17716811E+00  1.14789344E+00
  0.00000000E+00  4.17716811E+00  1.14789344E+00  0.00000000E+00  4.17716811E+00
  1.14789344E+00  0.00000000E+00  4.17716811E+00  1.14789344E+00  0.00000000E+00
Num ILSW                                   I              100
ILSW                                       I   N=         100
           0           0           0           0           2           0
           0           0           0           0           0          -1
           5           0           0           0           0           0
           0           0           0           0           0           0
           1           1           0           0           0           0
           0           0      100000           0          -1           0
           0           0           0           0           0           0
           0           0           0           1           0           0
           0 -2000000000           1           0           0           0
           0           0           4          52           0           0
           0           0           0           0           0           0
           0           0           0          11           0           1
           0           0           0           0           0           0
           0           0           0           0           0           0
           0           0           0           0           0           0
           0           0           0           0           0           0
           0           0           0           0
Num RLSW                                   I               52
RLSW                                       R   N=          52
  1.00000000E+00  1.00000000E+00  1.00000000E+00  1.00000000E+00  1.00000000E+00
  0.00000000E+00  0.00000000E+00  1.00000000E+00  0.00000000E+00  0.00000000E+00
  0.00000000E+00  0.00000000E+00  1.00000000E+00  0.00000000E+00  0.00000000E+00
  0.00000000E+00  0.00000000E+00  1.00000000E+00  0.00000000E+00  0.00000000E+00
  0.00000000E+00  0.00000000E+00  1.00000000E+00  0.00000000E+00  0.00000000E+00
  0.00000000E+00  0.00000000E+00  1.00000000E+00  0.00000000E+00  0.00000000E+00
  0.00000000E+00  0.00000000E+00  1.00000000E+00  0.00000000E+00  0.00000000E+00
  0.00000000E+00  0.00000000E+00  0.00000000E+00  1.00000000E+00  1.00000000E+00
  0.00000000E+00  1.00000000E+00  0.00000000E+00  0.00000000E+00  0.00000000E+00
  0.00000000E+00  0.00000000E+00  0.00000000E+00  0.00000000E+00  0.00000000E+00
  0.00000000E+00  0.00000000E+00
MxBond                                     I                4
NBond                                      I   N=          11
           3           3           3           4           3           1
           1           1           1           1           1
IBond                                      I   N=          44
           2           5           6           0           1           3
           7           0           2           4           8           0
           3           5           9          10           1           4
          11           0           1           0           0           0
           2           0           0           0           3           0
           0           0           4           0           0           0
           4           0           0           0           5           0
           0           0
RBond                                      R   N=          44
  1.00000000E+00  2.00000000E+00  1.00000000E+00  0.00000000E+00  1.00000000E+00
  2.00000000E+00  1.00000000E+00  0.00000000E+00  2.00000000E+00  1.00000000E+00
  1.00000000E+00  0.00000000E+00  1.00000000E+00  1.00000000E+00  1.00000000E+00
  1.00000000E+00  2.00000000E+00  1.00000000E+00  1.00000000E+00  0.00000000E+00
  1.00000000E+00  0.00000000E+00  0.00000000E+00  0.00000000E+00  1.00000000E+00
  0.00000000E+00  0.00000000E+00  0.00000000E+00  1.00000000E+00  0.00000000E+00
  0.00000000E+00  0.00000000E+00  1.00000000E+00  0.00000000E+00  0.00000000E+00
  0.00000000E+00  1.00000000E+00  0.00000000E+00  0.00000000E+00  0.00000000E+00
  1.00000000E+00  0.00000000E+00  0.00000000E+00  0.00000000E+00
Virial Ratio                               R      2.001200340761681E+00
SCF Energy                                 R     -1.928386239460719E+02
MP2 Energy                                 R     -1.935411839304591E+02
Total Energy                               R     -1.935411839304591E+02
Post-SCF wavefunction norm                 R      1.120063660860227E+00
RMS Density                                R      5.946819296979531E-09
Job Status                                 I                1
Nuclear derivative order                   I                0
External E-field                           R   N=          35
  0.00000000E+00  0.00000000E+00  0.00000000E+00  0.00000000E+00  0.00000000E+00
  0.00000000E+00  0.00000000E+00  0.00000000E+00  0.00000000E+00  0.00000000E+00
  0.00000000E+00  0.00000000E+00  0.00000000E+00  0.00000000E+00  0.00000000E+00
  0.00000000E+00  0.00000000E+00  0.00000000E+00  0.00000000E+00  0.00000000E+00
  0.00000000E+00  0.00000000E+00  0.00000000E+00  0.00000000E+00  0.00000000E+00
  0.00000000E+00  0.00000000E+00  0.00000000E+00  0.00000000E+00  0.00000000E+00
  0.00000000E+00  0.00000000E+00  0.00000000E+00  0.00000000E+00  0.00000000E+00
IOpCl                                      I                0
IROHF                                      I                0
Alpha Orbital Energies                     R   N=         152
 -1.12326533E+01 -1.12300257E+01 -1.12294871E+01 -1.12280238E+01 -1.12278406E+01
 -1.15187639E+00 -9.65453155E-01 -9.55580713E-01 -7.56126923E-01 -7.27483932E-01
 -6.96512273E-01 -5.92032914E-01 -5.62562210E-01 -5.29132545E-01 -5.08447563E-01
 -5.03096311E-01 -4.12887644E-01 -3.07886914E-01  4.21128368E-02  5.06404866E-02
  5.25693673E-02  7.06234483E-02  7.15768135E-02  7.72162345E-02  1.03256443E-01
  1.32154053E-01  1.45214907E-01  1.48854177E-01  1.51184264E-01  1.60067784E-01
  1.62547998E-01  1.85199890E-01  1.90144890E-01  1.92830822E-01  2.03455034E-01
  2.06469319E-01  2.06749739E-01  2.10431495E-01  2.10882151E-01  2.26147960E-01
  2.32785008E-01  2.34633203E-01  2.62025127E-01  2.74544208E-01  2.83121413E-01
  2.85699276E-01  3.39321802E-01  3.51899145E-01  3.89853453E-01  3.90016482E-01
  4.20238177E-01  4.31250657E-01  4.37892816E-01  4.62912579E-01  5.35836198E-01
  5.56777082E-01  6.23221417E-01  6.32452639E-01  6.36914000E-01  6.67302941E-01
  7.11334679E-01  7.40854964E-01  7.47929223E-01  7.51318364E-01  7.52272205E-01
  8.07101919E-01  8.23159754E-01  8.40135057E-01  8.59727721E-01  8.81153929E-01
  8.95241971E-01  9.41923405E-01  9.80757577E-01  9.87933945E-01  1.00076775E+00
  1.00613663E+00  1.01597908E+00  1.03411627E+00  1.09839963E+00  1.11467987E+00
  1.14140486E+00  1.21028570E+00  1.22019631E+00  1.22857123E+00  1.26143357E+00
  1.33564593E+00  1.37719040E+00  1.46714438E+00  1.66007009E+00  1.68622318E+00
  1.73129110E+00  1.81976827E+00  1.82720841E+00  1.82855156E+00  1.83907222E+00
  1.84019966E+00  1.84898807E+00  1.91327845E+00  1.93792877E+00  1.99003965E+00
  2.01807834E+00  2.10062992E+00  2.11229950E+00  2.13391195E+00  2.14585254E+00
  2.18783522E+00  2.19823366E+00  2.24269057E+00  2.24637895E+00  2.27611271E+00
  2.33773372E+00  2.41695180E+00  2.46979679E+00  2.55969877E+00  2.58571210E+00
  2.63924811E+00  2.64550443E+00  2.74095044E+00  2.79001196E+00  2.80825375E+00
  2.88475748E+00  2.90694485E+00  2.97486977E+00  2.98082418E+00  2.98090479E+00
  3.04280011E+00  3.05821231E+00  3.06441128E+00  3.10428726E+00  3.12004612E+00
  3.17919654E+00  3.21619553E+00  3.36172714E+00  3.39105875E+00  3.42500409E+00
  3.47140276E+00  3.60509180E+00  3.73084150E+00  3.78483185E+00  3.90761855E+00
  3.92953546E+00  4.16595833E+00  4.46076463E+00  4.46771887E+00  4.49992974E+00
  4.56862669E+00  5.01554424E+00  2.48371472E+01  2.49829427E+01  2.50665008E+01
  2.53867799E+01  2.54175762E+01
Alpha MO coefficients                      R   N=       23104
  1.07414854E-02  8.89108040E-03  5.71463005E-06  1.01377201E-05 -3.87978877E-16
  9.90286231E-05 -1.39503803E-05  7.08130307E-06  6.02752986E-16 -1.21385617E-04
  9.77864522E-05 -1.23897059E-04 -1.43356304E-15 -2.03994394E-03  3.19900230E-04
 -6.37362131E-04  2.82783172E-15 -7.66528133E-06  1.14430679E-16  1.69133151E-16
 -1.60369086E-05  4.88786586E-07  1.07414854E-02  8.89108040E-03 -5.71463005E-06
  1.01377201E-05 -5.37483447E-16  9.90286231E-05  1.39503804E-05  7.08130308E-06
  7.15647727E-16 -1.21385617E-04 -9.77864527E-05 -1.23897059E-04  3.75821283E-16
 -2.03994395E-03 -3.19900227E-04 -6.37362137E-04 -1.37804580E-15 -7.66528133E-06
 -3.06337183E-16  2.31286252E-16 -1.60369086E-05 -4.88786586E-07  4.76705859E-02
  3.94165921E-02  1.04573085E-04  1.10273255E-04 -1.82528805E-16  6.18509964E-04
  2.33296226E-04  1.89160238E-04  5.97527199E-16  1.01562326E-03  6.17540283E-04
  2.58636148E-04 -3.31527870E-17  4.26939032E-03  1.51938999E-03 -2.54931458E-04
 -1.23849789E-15 -8.02879020E-05 -1.42943288E-16  4.14889924E-16 -1.67140043E-05
  1.05566004E-04  5.59094313E-01  4.62976919E-01  5.81820422E-17 -4.96492630E-06
 -1.68000393E-16  4.59491030E-03 -8.56596007E-15 -5.16117302E-05  5.81190718E-16
 -3.35966786E-03  1.28119639E-13  6.59587365E-04 -3.81018869E-15 -5.39873498E-03
 -1.71604501E-12  1.01447285E-03  1.03438288E-14  2.68932829E-05  1.84079695E-16
  5.36677004E-16 -7.90828593E-05  4.99303557E-17  4.76705859E-02  3.94165921E-02
 -1.04573085E-04  1.10273255E-04  3.31057358E-16  6.18509964E-04 -2.33296226E-04
  1.89160238E-04 -7.04100197E-16  1.01562326E-03 -6.17540283E-04  2.58636147E-04
  1.85481673E-15  4.26939030E-03 -1.51938999E-03 -2.54931453E-04 -4.16883438E-15
 -8.02879020E-05  2.14636113E-17  3.48386531E-17 -1.67140043E-05 -1.05566004E-04
  1.07295680E-05 -2.51437195E-05 -3.72226423E-05 -2.34531957E-04  4.55686716E-06
  6.30929763E-06 -2.01403490E-16  1.07295680E-05 -2.51437195E-05 -3.72226426E-05
 -2.34531958E-04 -4.55686715E-06  6.30929762E-06 -3.04434678E-16  4.25017531E-05
 -3.99420279E-05  3.14583667E-04  6.10080706E-04  9.55374662E-07 -2.45409237E-05
  4.43680881E-17  3.30559565E-04  2.91203251E-04  4.75444745E-04 -1.25610804E-04
 -1.49994063E-15 -7.04019619E-05  2.69685104E-05  3.30559565E-04  2.91203251E-04
  4.75444745E-04 -1.25610805E-04 -1.76995155E-15 -7.04019619E-05 -2.69685104E-05
  4.25017531E-05 -3.99420280E-05  3.14583667E-04  6.10080705E-04 -9.55374656E-07
 -2.45409237E-05  1.01469093E-16  3.58226347E-01  2.96626475E-01 -1.98396116E-04
 -1.38147672E-04  4.96334023E-16  3.02584927E-03 -5.52397343E-05  3.35446760E-04
 -9.06640182E-16 -4.08843586E-04 -1.55091646E-05  3.13966639E-05 -6.80945019E-16
 -1.07259135E-03 -3.51936527E-04  1.90699410E-04  1.10269595E-15 -2.15842773E-04
  2.24198852E-16 -2.73449547E-16 -7.05128681E-05  9.44553648E-05  3.58226347E-01
  2.96626475E-01  1.98396116E-04 -1.38147672E-04 -2.17514753E-16  3.02584927E-03
  5.52397343E-05  3.35446760E-04  7.74849995E-16 -4.08843586E-04  1.55091644E-05
  3.13966639E-05 -1.41685545E-16 -1.07259136E-03  3.51936528E-04  1.90699408E-04
  2.30316331E-16 -2.15842773E-04  2.11400795E-16  4.98911460E-16 -7.05128682E-05
 -9.44553648E-05  1.71311786E-01  1.41849696E-01  3.11743550E-05 -5.29082203E-05
  1.36789280E-15  1.47792621E-03  2.31840166E-06 -1.80124260E-04 -1.85760193E-15
 -6.99776882E-04 -1.84511606E-04  1.99454908E-05  1.50414255E-15  1.93486578E-03
  6.87425168E-04 -3.41951056E-04 -5.80490512E-16 -2.84267585E-05 -3.62140031E-16
  1.71968890E-16 -7.14456832E-05 -9.34150113E-05 -4.30643276E-02 -3.57110766E-02
  1.35456103E-15 -4.39164734E-05  2.98390892E-17 -1.29740342E-04 -2.47318262E-14
 -1.62666964E-04 -3.15618076E-16  4.56228452E-04  1.10374786E-13 -1.67270656E-04
  3.62970168E-16 -1.92519931E-03 -7.74650052E-13  1.08024997E-03 -2.92102456E-15
 -2.99244900E-05 -1.30311199E-16 -4.19727881E-16  3.76121685E-05  8.54371119E-15
  1.71311786E-01  1.41849696E-01 -3.11743550E-05 -5.29082203E-05  2.17904195E-16
  1.47792621E-03 -2.31840168E-06 -1.80124260E-04 -5.67414240E-16 -6.99776882E-04
  1.84511607E-04  1.99454906E-05  1.20656165E-15  1.93486578E-03 -6.87425168E-04
 -3.41951054E-04 -1.08113440E-15 -2.84267585E-05  3.84188094E-17 -2.88442779E-16
 -7.14456832E-05  9.34150113E-05  2.66240142E-04 -3.83577086E-05  3.81489273E-04
  2.47363976E-04 -1.67821114E-05  3.71110370E-05 -9.94263396E-17  2.66240143E-04
 -3.83577086E-05  3.81489274E-04  2.47363976E-04  1.67821115E-05  3.71110370E-05
  4.97052353E-17  1.25713497E-04 -3.32927771E-05  1.52380964E-04  3.45158645E-04
  7.01251722E-06 -2.61100488E-05 -3.14606431E-17 -3.39299220E-05  3.18853039E-05
 -1.64435346E-04 -4.14442047E-04 -3.73447053E-15  9.21407058E-06  1.94719376E-05
 -3.39299220E-05  3.18853039E-05 -1.64435346E-04 -4.14442047E-04 -3.66553307E-15
  9.21407058E-06 -1.94719376E-05  1.25713497E-04 -3.32927771E-05  1.52380964E-04
  3.45158644E-04 -7.01251721E-06 -2.61100488E-05 -4.64403382E-17  3.10106065E-01
  2.56851365E-01  1.33984804E-07 -7.98902288E-05  5.77206137E-16  2.29295842E-03
  4.12653475E-04  3.18812586E-04 -8.28575267E-16 -5.49536558E-04 -5.93253778E-05
 -2.46742432E-04 -5.01966637E-16  3.36999669E-03 -6.19619912E-04  1.78181262E-03
  3.76998624E-15 -1.84589426E-04 -5.77446900E-16 -4.77150007E-16 -2.83222354E-04
  7.30136617E-06 -3.10106065E-01 -2.56851365E-01  1.33984826E-07  7.98902288E-05
 -1.71502246E-16 -2.29295842E-03  4.12653475E-04 -3.18812586E-04 -1.07777426E-15
  5.49536559E-04 -5.93253779E-05  2.46742432E-04  2.76920860E-15 -3.36999670E-03
 -6.19619912E-04 -1.78181262E-03 -6.63415422E-15  1.84589426E-04 -2.62718638E-16
 -1.71701614E-16  2.83222354E-04  7.30136616E-06 -2.49927735E-01 -2.06973251E-01
 -4.60529366E-05 -2.48304755E-05  3.48624509E-16 -1.98480459E-03  7.79286894E-05