X=NO2                                                                   
SP        RMP2-FC                                                     6-311++G(d,p)       
Number of atoms                            I               14
Info1-9                                    I   N=           9
          25          23           0           0           0         110
           1           2           1
Charge                                     I                0
Multiplicity                               I                1
Number of electrons                        I               64
Number of alpha electrons                  I               32
Number of beta electrons                   I               32
Number of basis functions                  I              233
Number of independent functions            I              233
Number of point charges in /Mol/           I                0
Number of translation vectors              I                0
Atomic numbers                             I   N=          14
           6           6           6           6           6           6
           7           8           8           1           1           1
           1           1
Nuclear charges                            R   N=          14
  6.00000000E+00  6.00000000E+00  6.00000000E+00  6.00000000E+00  6.00000000E+00
  6.00000000E+00  7.00000000E+00  8.00000000E+00  8.00000000E+00  1.00000000E+00
  1.00000000E+00  1.00000000E+00  1.00000000E+00  1.00000000E+00
Current cartesian coordinates              R   N=          42
 -8.12427280E-01  2.30288263E+00  0.00000000E+00  4.56816726E-01  5.66917840E-06
  0.00000000E+00 -8.12427280E-01 -2.30287507E+00  0.00000000E+00 -3.44165994E+00
 -2.28678783E+00  0.00000000E+00 -4.75380451E+00 -5.90539410E-08  0.00000000E+00
 -3.44165994E+00  2.28678594E+00  0.00000000E+00  3.25479437E+00 -5.90539419E-08
  0.00000000E+00  4.32923407E+00 -2.04908674E+00  0.00000000E+00  4.32924352E+00
  2.04907540E+00  0.00000000E+00  2.55131925E-01 -4.04481328E+00  0.00000000E+00
 -4.46431736E+00 -4.06032793E+00  0.00000000E+00 -6.80202197E+00  5.66917840E-06
  0.00000000E+00 -4.46432492E+00  4.06032226E+00  0.00000000E+00  2.55116807E-01
  4.04483218E+00  0.00000000E+00
Force Field                                I                0
Int Atom Types                             I   N=          14
           0           0           0           0           0           0
           0           0           0           0           0           0
           0           0
MM charges                                 R   N=          14
  0.00000000E+00  0.00000000E+00  0.00000000E+00  0.00000000E+00  0.00000000E+00
  0.00000000E+00  0.00000000E+00  0.00000000E+00  0.00000000E+00  0.00000000E+00
  0.00000000E+00  0.00000000E+00  0.00000000E+00  0.00000000E+00
Integer atomic weights                     I   N=          14
          12          12          12          12          12          12
          14          16          16           1           1           1
           1           1
Real atomic weights                        R   N=          14
  1.20000000E+01  1.20000000E+01  1.20000000E+01  1.20000000E+01  1.20000000E+01
  1.20000000E+01  1.40030740E+01  1.59949146E+01  1.59949146E+01  1.00782504E+00
  1.00782504E+00  1.00782504E+00  1.00782504E+00  1.00782504E+00
Atom fragment info                         I   N=          14
           0           0           0           0           0           0
           0           0           0           0           0           0
           0           0
Atom residue num                           I   N=          14
           0           0           0           0           0           0
           0           0           0           0           0           0
           0           0
Nuclear spins                              I   N=          14
           0           0           0           0           0           0
           2           0           0           1           1           1
           1           1
Nuclear ZEff                               R   N=          14
 -3.60000000E+00 -3.60000000E+00 -3.60000000E+00 -3.60000000E+00 -3.60000000E+00
 -3.60000000E+00 -4.55000000E+00 -5.60000000E+00 -5.60000000E+00 -1.00000000E+00
 -1.00000000E+00 -1.00000000E+00 -1.00000000E+00 -1.00000000E+00
Nuclear QMom                               R   N=          14
  0.00000000E+00  0.00000000E+00  0.00000000E+00  0.00000000E+00  0.00000000E+00
  0.00000000E+00  2.04400000E+00  0.00000000E+00  0.00000000E+00  0.00000000E+00
  0.00000000E+00  0.00000000E+00  0.00000000E+00  0.00000000E+00
Nuclear GFac                               R   N=          14
  0.00000000E+00  0.00000000E+00  0.00000000E+00  0.00000000E+00  0.00000000E+00
  0.00000000E+00  4.03761000E-01  0.00000000E+00  0.00000000E+00  2.79284600E+00
  2.79284600E+00  2.79284600E+00  2.79284600E+00  2.79284600E+00
MicOpt                                     I   N=          14
          -1          -1          -1          -1          -1          -1
          -1          -1          -1          -1          -1          -1
          -1          -1
Number of contracted shells                I               79
Number of primitive shells                 I              152
Pure/Cartesian d shells                    I                0
Pure/Cartesian f shells                    I                0
Highest angular momentum                   I                2
Largest degree of contraction              I                6
Shell types                                I   N=          79
           0          -1          -1          -1          -1          -2
           0          -1          -1          -1          -1          -2
           0          -1          -1          -1          -1          -2
           0          -1          -1          -1          -1          -2
           0          -1          -1          -1          -1          -2
           0          -1          -1          -1          -1          -2
           0          -1          -1          -1          -1          -2
           0          -1          -1          -1          -1          -2
           0          -1          -1          -1          -1          -2
           0           0           0           0           1           0
           0           0           0           1           0           0
           0           0           1           0           0           0
           0           1           0           0           0           0
           1
Number of primitives per shell             I   N=          79
           6           3           1           1           1           1
           6           3           1           1           1           1
           6           3           1           1           1           1
           6           3           1           1           1           1
           6           3           1           1           1           1
           6           3           1           1           1           1
           6           3           1           1           1           1
           6           3           1           1           1           1
           6           3           1           1           1           1
           3           1           1           1           1           3
           1           1           1           1           3           1
           1           1           1           3           1           1
           1           1           3           1           1           1
           1
Shell to atom map                          I   N=          79
           1           1           1           1           1           1
           2           2           2           2           2           2
           3           3           3           3           3           3
           4           4           4           4           4           4
           5           5           5           5           5           5
           6           6           6           6           6           6
           7           7           7           7           7           7
           8           8           8           8           8           8
           9           9           9           9           9           9
          10          10          10          10          10          11
          11          11          11          11          12          12
          12          12          12          13          13          13
          13          13          14          14          14          14
          14
Primitive exponents                        R   N=         152
  4.56324000E+03  6.82024000E+02  1.54973000E+02  4.44553000E+01  1.30290000E+01
  1.82773000E+00  2.09642000E+01  4.80331000E+00  1.45933000E+00  4.83456000E-01
  1.45585000E-01  4.38000000E-02  6.26000000E-01  4.56324000E+03  6.82024000E+02
  1.54973000E+02  4.44553000E+01  1.30290000E+01  1.82773000E+00  2.09642000E+01
  4.80331000E+00  1.45933000E+00  4.83456000E-01  1.45585000E-01  4.38000000E-02
  6.26000000E-01  4.56324000E+03  6.82024000E+02  1.54973000E+02  4.44553000E+01
  1.30290000E+01  1.82773000E+00  2.09642000E+01  4.80331000E+00  1.45933000E+00
  4.83456000E-01  1.45585000E-01  4.38000000E-02  6.26000000E-01  4.56324000E+03
  6.82024000E+02  1.54973000E+02  4.44553000E+01  1.30290000E+01  1.82773000E+00
  2.09642000E+01  4.80331000E+00  1.45933000E+00  4.83456000E-01  1.45585000E-01
  4.38000000E-02  6.26000000E-01  4.56324000E+03  6.82024000E+02  1.54973000E+02
  4.44553000E+01  1.30290000E+01  1.82773000E+00  2.09642000E+01  4.80331000E+00
  1.45933000E+00  4.83456000E-01  1.45585000E-01  4.38000000E-02  6.26000000E-01
  4.56324000E+03  6.82024000E+02  1.54973000E+02  4.44553000E+01  1.30290000E+01
  1.82773000E+00  2.09642000E+01  4.80331000E+00  1.45933000E+00  4.83456000E-01
  1.45585000E-01  4.38000000E-02  6.26000000E-01  6.29348000E+03  9.49044000E+02
  2.18776000E+02  6.36916000E+01  1.88282000E+01  2.72023000E+00  3.06331000E+01
  7.02614000E+00  2.11205000E+00  6.84009000E-01  2.00878000E-01  6.39000000E-02
  9.13000000E-01  8.58850000E+03  1.29723000E+03  2.99296000E+02  8.73771000E+01
  2.56789000E+01  3.74004000E+00  4.21175000E+01  9.62837000E+00  2.85332000E+00
  9.05661000E-01  2.55611000E-01  8.45000000E-02  1.29200000E+00  8.58850000E+03
  1.29723000E+03  2.99296000E+02  8.73771000E+01  2.56789000E+01  3.74004000E+00
  4.21175000E+01  9.62837000E+00  2.85332000E+00  9.05661000E-01  2.55611000E-01
  8.45000000E-02  1.29200000E+00  3.38650000E+01  5.09479000E+00  1.15879000E+00
  3.25840000E-01  1.02741000E-01  3.60000000E-02  7.50000000E-01  3.38650000E+01
  5.09479000E+00  1.15879000E+00  3.25840000E-01  1.02741000E-01  3.60000000E-02
  7.50000000E-01  3.38650000E+01  5.09479000E+00  1.15879000E+00  3.25840000E-01
  1.02741000E-01  3.60000000E-02  7.50000000E-01  3.38650000E+01  5.09479000E+00
  1.15879000E+00  3.25840000E-01  1.02741000E-01  3.60000000E-02  7.50000000E-01
  3.38650000E+01  5.09479000E+00  1.15879000E+00  3.25840000E-01  1.02741000E-01
  3.60000000E-02  7.50000000E-01
Contraction coefficients                   R   N=         152
  1.96665025E-03  1.52306019E-02  7.61269097E-02  2.60801033E-01  6.16462078E-01
  2.21006028E-01  1.14660081E-01  9.19999648E-01 -3.03068213E-03  1.00000000E+00
  1.00000000E+00  1.00000000E+00  1.00000000E+00  1.96665025E-03  1.52306019E-02
  7.61269097E-02  2.60801033E-01  6.16462078E-01  2.21006028E-01  1.14660081E-01
  9.19999648E-01 -3.03068213E-03  1.00000000E+00  1.00000000E+00  1.00000000E+00
  1.00000000E+00  1.96665025E-03  1.52306019E-02  7.61269097E-02  2.60801033E-01
  6.16462078E-01  2.21006028E-01  1.14660081E-01  9.19999648E-01 -3.03068213E-03
  1.00000000E+00  1.00000000E+00  1.00000000E+00  1.00000000E+00  1.96665025E-03
  1.52306019E-02  7.61269097E-02  2.60801033E-01  6.16462078E-01  2.21006028E-01
  1.14660081E-01  9.19999648E-01 -3.03068213E-03  1.00000000E+00  1.00000000E+00
  1.00000000E+00  1.00000000E+00  1.96665025E-03  1.52306019E-02  7.61269097E-02
  2.60801033E-01  6.16462078E-01  2.21006028E-01  1.14660081E-01  9.19999648E-01
 -3.03068213E-03  1.00000000E+00  1.00000000E+00  1.00000000E+00  1.00000000E+00
  1.96665025E-03  1.52306019E-02  7.61269097E-02  2.60801033E-01  6.16462078E-01
  2.21006028E-01  1.14660081E-01  9.19999648E-01 -3.03068213E-03  1.00000000E+00
  1.00000000E+00  1.00000000E+00  1.00000000E+00  1.96978815E-03  1.49612859E-02
  7.35005308E-02  2.48936766E-01  6.02459433E-01  2.56201759E-01  1.11906080E-01
  9.21666655E-01 -2.56919183E-03  1.00000000E+00  1.00000000E+00  1.00000000E+00
  1.00000000E+00  1.89515008E-03  1.43859006E-02  7.07320031E-02  2.40001011E-01
  5.94797026E-01  2.80802012E-01  1.13889012E-01  9.20811101E-01 -3.27447036E-03
  1.00000000E+00  1.00000000E+00  1.00000000E+00  1.00000000E+00  1.89515008E-03
  1.43859006E-02  7.07320031E-02  2.40001011E-01  5.94797026E-01  2.80802012E-01
  1.13889012E-01  9.20811101E-01 -3.27447036E-03  1.00000000E+00  1.00000000E+00
  1.00000000E+00  1.00000000E+00  2.54938145E-02  1.90373109E-01  8.52161486E-01
  1.00000000E+00  1.00000000E+00  1.00000000E+00  1.00000000E+00  2.54938145E-02
  1.90373109E-01  8.52161486E-01  1.00000000E+00  1.00000000E+00  1.00000000E+00
  1.00000000E+00  2.54938145E-02  1.90373109E-01  8.52161486E-01  1.00000000E+00
  1.00000000E+00  1.00000000E+00  1.00000000E+00  2.54938145E-02  1.90373109E-01
  8.52161486E-01  1.00000000E+00  1.00000000E+00  1.00000000E+00  1.00000000E+00
  2.54938145E-02  1.90373109E-01  8.52161486E-01  1.00000000E+00  1.00000000E+00
  1.00000000E+00  1.00000000E+00
P(S=P) Contraction coefficients            R   N=         152
  0.00000000E+00  0.00000000E+00  0.00000000E+00  0.00000000E+00  0.00000000E+00
  0.00000000E+00  4.02486927E-02  2.37593957E-01  8.15853851E-01  1.00000000E+00
  1.00000000E+00  1.00000000E+00  0.00000000E+00  0.00000000E+00  0.00000000E+00
  0.00000000E+00  0.00000000E+00  0.00000000E+00  0.00000000E+00  4.02486927E-02
  2.37593957E-01  8.15853851E-01  1.00000000E+00  1.00000000E+00  1.00000000E+00
  0.00000000E+00  0.00000000E+00  0.00000000E+00  0.00000000E+00  0.00000000E+00
  0.00000000E+00  0.00000000E+00  4.02486927E-02  2.37593957E-01  8.15853851E-01
  1.00000000E+00  1.00000000E+00  1.00000000E+00  0.00000000E+00  0.00000000E+00
  0.00000000E+00  0.00000000E+00  0.00000000E+00  0.00000000E+00  0.00000000E+00
  4.02486927E-02  2.37593957E-01  8.15853851E-01  1.00000000E+00  1.00000000E+00
  1.00000000E+00  0.00000000E+00  0.00000000E+00  0.00000000E+00  0.00000000E+00
  0.00000000E+00  0.00000000E+00  0.00000000E+00  4.02486927E-02  2.37593957E-01
  8.15853851E-01  1.00000000E+00  1.00000000E+00  1.00000000E+00  0.00000000E+00
  0.00000000E+00  0.00000000E+00  0.00000000E+00  0.00000000E+00  0.00000000E+00
  0.00000000E+00  4.02486927E-02  2.37593957E-01  8.15853851E-01  1.00000000E+00
  1.00000000E+00  1.00000000E+00  0.00000000E+00  0.00000000E+00  0.00000000E+00
  0.00000000E+00  0.00000000E+00  0.00000000E+00  0.00000000E+00  3.83119186E-02
  2.37403116E-01  8.17592398E-01  1.00000000E+00  1.00000000E+00  1.00000000E+00
  0.00000000E+00  0.00000000E+00  0.00000000E+00  0.00000000E+00  0.00000000E+00
  0.00000000E+00  0.00000000E+00  3.65113974E-02  2.37152983E-01  8.19701941E-01
  1.00000000E+00  1.00000000E+00  1.00000000E+00  0.00000000E+00  0.00000000E+00
  0.00000000E+00  0.00000000E+00  0.00000000E+00  0.00000000E+00  0.00000000E+00
  3.65113974E-02  2.37152983E-01  8.19701941E-01  1.00000000E+00  1.00000000E+00
  1.00000000E+00  0.00000000E+00  0.00000000E+00  0.00000000E+00  0.00000000E+00
  0.00000000E+00  0.00000000E+00  0.00000000E+00  0.00000000E+00  0.00000000E+00
  0.00000000E+00  0.00000000E+00  0.00000000E+00  0.00000000E+00  0.00000000E+00
  0.00000000E+00  0.00000000E+00  0.00000000E+00  0.00000000E+00  0.00000000E+00
  0.00000000E+00  0.00000000E+00  0.00000000E+00  0.00000000E+00  0.00000000E+00
  0.00000000E+00  0.00000000E+00  0.00000000E+00  0.00000000E+00  0.00000000E+00
  0.00000000E+00  0.00000000E+00  0.00000000E+00  0.00000000E+00  0.00000000E+00
  0.00000000E+00  0.00000000E+00
Coordinates of each shell                  R   N=         237
 -8.12427161E-01  2.30288269E+00  0.00000000E+00 -8.12427161E-01  2.30288269E+00
  0.00000000E+00 -8.12427161E-01  2.30288269E+00  0.00000000E+00 -8.12427161E-01
  2.30288269E+00  0.00000000E+00 -8.12427161E-01  2.30288269E+00  0.00000000E+00
 -8.12427161E-01  2.30288269E+00  0.00000000E+00  4.56816844E-01  5.72823234E-06
  0.00000000E+00  4.56816844E-01  5.72823234E-06  0.00000000E+00  4.56816844E-01
  5.72823234E-06  0.00000000E+00  4.56816844E-01  5.72823234E-06  0.00000000E+00
  4.56816844E-01  5.72823234E-06  0.00000000E+00  4.56816844E-01  5.72823234E-06
  0.00000000E+00 -8.12427161E-01 -2.30287501E+00  0.00000000E+00 -8.12427161E-01
 -2.30287501E+00  0.00000000E+00 -8.12427161E-01 -2.30287501E+00  0.00000000E+00
 -8.12427161E-01 -2.30287501E+00  0.00000000E+00 -8.12427161E-01 -2.30287501E+00
  0.00000000E+00 -8.12427161E-01 -2.30287501E+00  0.00000000E+00 -3.44165982E+00
 -2.28678777E+00  0.00000000E+00 -3.44165982E+00 -2.28678777E+00  0.00000000E+00
 -3.44165982E+00 -2.28678777E+00  0.00000000E+00 -3.44165982E+00 -2.28678777E+00
  0.00000000E+00 -3.44165982E+00 -2.28678777E+00  0.00000000E+00 -3.44165982E+00
 -2.28678777E+00  0.00000000E+00 -4.75380439E+00  0.00000000E+00  0.00000000E+00
 -4.75380439E+00  0.00000000E+00  0.00000000E+00 -4.75380439E+00  0.00000000E+00
  0.00000000E+00 -4.75380439E+00  0.00000000E+00  0.00000000E+00 -4.75380439E+00
  0.00000000E+00  0.00000000E+00 -4.75380439E+00  0.00000000E+00  0.00000000E+00
 -3.44165982E+00  2.28678600E+00  0.00000000E+00 -3.44165982E+00  2.28678600E+00
  0.00000000E+00 -3.44165982E+00  2.28678600E+00  0.00000000E+00 -3.44165982E+00
  2.28678600E+00  0.00000000E+00 -3.44165982E+00  2.28678600E+00  0.00000000E+00
 -3.44165982E+00  2.28678600E+00  0.00000000E+00  3.25479449E+00  0.00000000E+00
  0.00000000E+00  3.25479449E+00  0.00000000E+00  0.00000000E+00  3.25479449E+00
  0.00000000E+00  0.00000000E+00  3.25479449E+00  0.00000000E+00  0.00000000E+00
  3.25479449E+00  0.00000000E+00  0.00000000E+00  3.25479449E+00  0.00000000E+00
  0.00000000E+00  4.32923419E+00 -2.04908668E+00  0.00000000E+00  4.32923419E+00
 -2.04908668E+00  0.00000000E+00  4.32923419E+00 -2.04908668E+00  0.00000000E+00
  4.32923419E+00 -2.04908668E+00  0.00000000E+00  4.32923419E+00 -2.04908668E+00
  0.00000000E+00  4.32923419E+00 -2.04908668E+00  0.00000000E+00  4.32924364E+00
  2.04907546E+00  0.00000000E+00  4.32924364E+00  2.04907546E+00  0.00000000E+00
  4.32924364E+00  2.04907546E+00  0.00000000E+00  4.32924364E+00  2.04907546E+00
  0.00000000E+00  4.32924364E+00  2.04907546E+00  0.00000000E+00  4.32924364E+00
  2.04907546E+00  0.00000000E+00  2.55132043E-01 -4.04481322E+00  0.00000000E+00
  2.55132043E-01 -4.04481322E+00  0.00000000E+00  2.55132043E-01 -4.04481322E+00
  0.00000000E+00  2.55132043E-01 -4.04481322E+00  0.00000000E+00  2.55132043E-01
 -4.04481322E+00  0.00000000E+00 -4.46431724E+00 -4.06032787E+00  0.00000000E+00
 -4.46431724E+00 -4.06032787E+00  0.00000000E+00 -4.46431724E+00 -4.06032787E+00
  0.00000000E+00 -4.46431724E+00 -4.06032787E+00  0.00000000E+00 -4.46431724E+00
 -4.06032787E+00  0.00000000E+00 -6.80202185E+00  5.72823234E-06  0.00000000E+00
 -6.80202185E+00  5.72823234E-06  0.00000000E+00 -6.80202185E+00  5.72823234E-06
  0.00000000E+00 -6.80202185E+00  5.72823234E-06  0.00000000E+00 -6.80202185E+00
  5.72823234E-06  0.00000000E+00 -4.46432480E+00  4.06032232E+00  0.00000000E+00
 -4.46432480E+00  4.06032232E+00  0.00000000E+00 -4.46432480E+00  4.06032232E+00
  0.00000000E+00 -4.46432480E+00  4.06032232E+00  0.00000000E+00 -4.46432480E+00
  4.06032232E+00  0.00000000E+00  2.55116925E-01  4.04483223E+00  0.00000000E+00
  2.55116925E-01  4.04483223E+00  0.00000000E+00  2.55116925E-01  4.04483223E+00
  0.00000000E+00  2.55116925E-01  4.04483223E+00  0.00000000E+00  2.55116925E-01
  4.04483223E+00  0.00000000E+00
Constraint Structure                       R   N=          42
 -8.12427161E-01  2.30288269E+00  0.00000000E+00  4.56816844E-01  5.72823234E-06
  0.00000000E+00 -8.12427161E-01 -2.30287501E+00  0.00000000E+00 -3.44165982E+00
 -2.28678777E+00  0.00000000E+00 -4.75380439E+00  0.00000000E+00  0.00000000E+00
 -3.44165982E+00  2.28678600E+00  0.00000000E+00  3.25479449E+00  0.00000000E+00
  0.00000000E+00  4.32923419E+00 -2.04908668E+00  0.00000000E+00  4.32924364E+00
  2.04907546E+00  0.00000000E+00  2.55132043E-01 -4.04481322E+00  0.00000000E+00
 -4.46431724E+00 -4.06032787E+00  0.00000000E+00 -6.80202185E+00  5.72823234E-06
  0.00000000E+00 -4.46432480E+00  4.06032232E+00  0.00000000E+00  2.55116925E-01
  4.04483223E+00  0.00000000E+00
Num ILSW                                   I              100
ILSW                                       I   N=         100
           0           0           0           0           2           0
           0           0           0           0           0          -1
           0           0           0           0           0           0
           0           0           0           0           0           0
           1           0           0           0           0           0
           0           0      100000           0          -1           0
           0           0           0           0           0           0
           0           0           0           1           0           0
           0           0           1           0           0           0
           0           0           4          40           0           0
           0           0           0           0           0           0
           0           0           0           0           0           0
           0           0           0           0           0           0
           0           0           0           0           0           0
           0           0           0           0           0           0
           0           0           0           0           0           0
           0           0           0           0
Num RLSW                                   I               40
RLSW                                       R   N=          40
  1.00000000E+00  1.00000000E+00  1.00000000E+00  1.00000000E+00  1.00000000E+00
  0.00000000E+00  0.00000000E+00  1.00000000E+00  0.00000000E+00  0.00000000E+00
  0.00000000E+00  0.00000000E+00  1.00000000E+00  0.00000000E+00  0.00000000E+00
  0.00000000E+00  0.00000000E+00  1.00000000E+00  0.00000000E+00  0.00000000E+00
  0.00000000E+00  0.00000000E+00  1.00000000E+00  0.00000000E+00  0.00000000E+00
  0.00000000E+00  0.00000000E+00  1.00000000E+00  0.00000000E+00  0.00000000E+00
  0.00000000E+00  0.00000000E+00  0.00000000E+00  0.00000000E+00  0.00000000E+00
  0.00000000E+00  0.00000000E+00  0.00000000E+00  1.00000000E+00  1.00000000E+00
MxBond                                     I                3
NBond                                      I   N=          14
           3           3           3           3           3           3
           3           1           1           1           1           1
           1           1
IBond                                      I   N=          42
           2           6          14           1           3           7
           2           4          10           3           5          11
           4           6          12           1           5          13
           2           8           9           7           0           0
           7           0           0           3           0           0
           4           0           0           5           0           0
           6           0           0           1           0           0
RBond                                      R   N=          42
  1.50000000E+00  1.50000000E+00  1.00000000E+00  1.50000000E+00  1.50000000E+00
  1.00000000E+00  1.50000000E+00  1.50000000E+00  1.00000000E+00  1.50000000E+00
  1.50000000E+00  1.00000000E+00  1.50000000E+00  1.50000000E+00  1.00000000E+00
  1.50000000E+00  1.50000000E+00  1.00000000E+00  1.00000000E+00  2.00000000E+00
  2.00000000E+00  2.00000000E+00  0.00000000E+00  0.00000000E+00  2.00000000E+00
  0.00000000E+00  0.00000000E+00  1.00000000E+00  0.00000000E+00  0.00000000E+00
  1.00000000E+00  0.00000000E+00  0.00000000E+00  1.00000000E+00  0.00000000E+00
  0.00000000E+00  1.00000000E+00  0.00000000E+00  0.00000000E+00  1.00000000E+00
  0.00000000E+00  0.00000000E+00
Virial Ratio                               R      2.001437216709007E+00
SCF Energy                                 R     -4.342789968962693E+02
MP2 Energy                                 R     -4.356903828815642E+02
Total Energy                               R     -4.356903828815642E+02
Post-SCF wavefunction norm                 R      1.215963600586979E+00
RMS Density                                R      7.162533795492412E-09
External E-field                           R   N=          35
  0.00000000E+00  0.00000000E+00  0.00000000E+00  0.00000000E+00  0.00000000E+00
  0.00000000E+00  0.00000000E+00  0.00000000E+00  0.00000000E+00  0.00000000E+00
  0.00000000E+00  0.00000000E+00  0.00000000E+00  0.00000000E+00  0.00000000E+00
  0.00000000E+00  0.00000000E+00  0.00000000E+00  0.00000000E+00  0.00000000E+00
  0.00000000E+00  0.00000000E+00  0.00000000E+00  0.00000000E+00  0.00000000E+00
  0.00000000E+00  0.00000000E+00  0.00000000E+00  0.00000000E+00  0.00000000E+00
  0.00000000E+00  0.00000000E+00  0.00000000E+00  0.00000000E+00  0.00000000E+00
IOpCl                                      I                0
IROHF                                      I                0
Alpha Orbital Energies                     R   N=         233
 -2.06061287E+01 -2.06060764E+01 -1.58585764E+01 -1.13184415E+01 -1.12811722E+01
 -1.12811349E+01 -1.12780120E+01 -1.12706515E+01 -1.12705427E+01 -1.61317261E+00
 -1.40555052E+00 -1.20444885E+00 -1.09690845E+00 -1.05748217E+00 -9.64759578E-01
 -8.69945192E-01 -8.33711957E-01 -7.85606530E-01 -7.30924022E-01 -7.22523738E-01
 -7.12899078E-01 -6.61073736E-01 -6.54906079E-01 -6.29509336E-01 -5.59889898E-01
 -5.39952778E-01 -5.35550518E-01 -4.98218534E-01 -4.96844235E-01 -4.55418893E-01
 -3.81033919E-01 -3.72159427E-01  3.04710153E-02  3.21662906E-02  4.20345244E-02
  5.06229848E-02  6.92524501E-02  7.26891847E-02  8.51143186E-02  1.10230286E-01
  1.12368022E-01  1.27180424E-01  1.39437471E-01  1.46087847E-01  1.48130800E-01
  1.52431774E-01  1.64873580E-01  1.70133650E-01  1.70803212E-01  1.83862243E-01
  1.92485799E-01  1.98849189E-01  2.01834777E-01  2.01957245E-01  2.04965189E-01
  2.05916354E-01  2.10767980E-01  2.14709006E-01  2.39356194E-01  2.47641724E-01
  2.53937682E-01  2.65041574E-01  2.71507246E-01  2.71630503E-01  2.97189861E-01
  3.00858462E-01  3.16367839E-01  3.20372100E-01  3.43292355E-01  3.43891534E-01
  3.58595643E-01  3.71395792E-01  3.85782137E-01  3.90822987E-01  3.98185930E-01
  4.06338588E-01  4.10742290E-01  4.16339054E-01  4.29702175E-01  4.57944710E-01
  4.74778077E-01  4.76591202E-01  4.82150648E-01  4.93566008E-01  5.01825594E-01
  5.53080398E-01  5.83336705E-01  6.07324115E-01  6.36718135E-01  6.54398453E-01
  6.82600617E-01  6.84355064E-01  6.99443965E-01  7.16845117E-01  7.17414006E-01
  7.26972387E-01  7.34223965E-01  7.77061034E-01  7.88094828E-01  7.93332890E-01
  7.94384622E-01  8.30363227E-01  8.59837219E-01  8.83145492E-01  9.16784679E-01
  9.17072114E-01  9.33800353E-01  9.70784076E-01  9.84381143E-01  1.00568566E+00
  1.01018755E+00  1.01579355E+00  1.05510241E+00  1.05563271E+00  1.09124315E+00
  1.09951361E+00  1.10181447E+00  1.12662260E+00  1.16620858E+00  1.18391278E+00
  1.19360600E+00  1.20636764E+00  1.20818862E+00  1.28479209E+00  1.30319739E+00
  1.31478202E+00  1.34654927E+00  1.35663698E+00  1.35857762E+00  1.36201028E+00
  1.42309424E+00  1.44588553E+00  1.45604818E+00  1.45822462E+00  1.55118358E+00
  1.55230353E+00  1.62624674E+00  1.70770030E+00  1.76600574E+00  1.77173114E+00
  1.79233086E+00  1.79939847E+00  1.80758002E+00  1.82370142E+00  1.85538199E+00
  1.88878715E+00  1.88948793E+00  1.98035418E+00  1.98313100E+00  1.98696730E+00
  2.02616823E+00  2.04369270E+00  2.07753029E+00  2.12774339E+00  2.13418479E+00
  2.14497722E+00  2.19419880E+00  2.21063186E+00  2.21410205E+00  2.22842987E+00
  2.23914836E+00  2.28591156E+00  2.30902301E+00  2.33747807E+00  2.34985074E+00
  2.40386937E+00  2.48853221E+00  2.59408394E+00  2.61675333E+00  2.62678027E+00
  2.73869610E+00  2.74487217E+00  2.76231008E+00  2.79392187E+00  2.80627767E+00
  2.90440389E+00  2.92802358E+00  2.96915934E+00  2.98890565E+00  3.00202046E+00
  3.01435182E+00  3.02772995E+00  3.05355902E+00  3.07065847E+00  3.12644747E+00
  3.14690079E+00  3.16931562E+00  3.17896081E+00  3.20013426E+00  3.20090317E+00
  3.23946823E+00  3.25488126E+00  3.26205050E+00  3.27970071E+00  3.29248510E+00
  3.44319670E+00  3.50650025E+00  3.58536883E+00  3.66168527E+00  3.70400638E+00
  3.77131570E+00  3.77437751E+00  3.78459001E+00  3.88155273E+00  3.89597907E+00
  3.94234945E+00  4.02025572E+00  4.11594362E+00  4.20210339E+00  4.22776569E+00
  4.25929555E+00  4.38735944E+00  4.42877428E+00  4.55174296E+00  4.55275971E+00
  5.04040526E+00  5.19812151E+00  5.24207762E+00  5.54569715E+00  5.57536491E+00
  5.66278104E+00  5.72832908E+00  6.27717808E+00  6.81875269E+00  2.47147029E+01
  2.50726637E+01  2.51011516E+01  2.52038979E+01  2.52334213E+01  2.53290246E+01
  3.67854268E+01  5.15953843E+01  5.17031157E+01
Alpha MO coefficients                      R   N=       54289
  1.31207257E-07  2.24914292E-06  2.37037460E-06  8.65619300E-07  0.00000000E+00
 -2.59171540E-05 -1.10375490E-05  2.02763756E-06  0.00000000E+00  4.32079864E-04
  2.78441842E-04 -1.34073456E-04  0.00000000E+00 -1.53716943E-02 -5.46307651E-03
  3.60383204E-03  0.00000000E+00 -6.35613577E-06  0.00000000E+00  0.00000000E+00