Pyramid-10                                                              
SP        RMP2-FC                                                     6-311++G(d,p)       
Number of atoms                            I               12
Info1-9                                    I   N=           9
          22          21           0           0           0         110
           1           2           1
Charge                                     I                0
Multiplicity                               I                1
Number of electrons                        I               42
Number of alpha electrons                  I               21
Number of beta electrons                   I               21
Number of basis functions                  I              174
Number of independent functions            I              173
Number of point charges in /Mol/           I                0
Number of translation vectors              I                0
Atomic numbers                             I   N=          12
           6           6           6           6           6           6
           1           1           1           1           1           1
Nuclear charges                            R   N=          12
  6.00000000E+00  6.00000000E+00  6.00000000E+00  6.00000000E+00  6.00000000E+00
  6.00000000E+00  1.00000000E+00  1.00000000E+00  1.00000000E+00  1.00000000E+00
  1.00000000E+00  1.00000000E+00
Current cartesian coordinates              R   N=          36
 -2.28348270E+00  1.31840523E+00 -5.08374124E-02 -2.28348270E+00 -1.31840523E+00
 -5.08374124E-02 -6.45860995E-16 -2.63692763E+00 -5.08695378E-02  2.28348270E+00
 -1.31840523E+00 -5.08374124E-02  2.28348270E+00  1.31840523E+00 -5.08374124E-02
  9.68791493E-16  2.63692763E+00 -5.08695378E-02 -4.03172315E+00  2.32762103E+00
  3.05101953E-01 -4.03172315E+00 -2.32762103E+00  3.05101953E-01 -1.14027951E-15
 -4.65554442E+00  3.05067938E-01  4.03172315E+00 -2.32762103E+00  3.05101953E-01
  4.03172315E+00  2.32762103E+00  3.05101953E-01  1.71041927E-15  4.65554442E+00
  3.05067938E-01
Force Field                                I                0
Int Atom Types                             I   N=          12
           0           0           0           0           0           0
           0           0           0           0           0           0
MM charges                                 R   N=          12
  0.00000000E+00  0.00000000E+00  0.00000000E+00  0.00000000E+00  0.00000000E+00
  0.00000000E+00  0.00000000E+00  0.00000000E+00  0.00000000E+00  0.00000000E+00
  0.00000000E+00  0.00000000E+00
Integer atomic weights                     I   N=          12
          12          12          12          12          12          12
           1           1           1           1           1           1
Real atomic weights                        R   N=          12
  1.20000000E+01  1.20000000E+01  1.20000000E+01  1.20000000E+01  1.20000000E+01
  1.20000000E+01  1.00782504E+00  1.00782504E+00  1.00782504E+00  1.00782504E+00
  1.00782504E+00  1.00782504E+00
Atom fragment info                         I   N=          12
           0           0           0           0           0           0
           0           0           0           0           0           0
Atom residue num                           I   N=          12
           0           0           0           0           0           0
           0           0           0           0           0           0
Nuclear spins                              I   N=          12
           0           0           0           0           0           0
           1           1           1           1           1           1
Nuclear ZEff                               R   N=          12
 -3.60000000E+00 -3.60000000E+00 -3.60000000E+00 -3.60000000E+00 -3.60000000E+00
 -3.60000000E+00 -1.00000000E+00 -1.00000000E+00 -1.00000000E+00 -1.00000000E+00
 -1.00000000E+00 -1.00000000E+00
Nuclear QMom                               R   N=          12
  0.00000000E+00  0.00000000E+00  0.00000000E+00  0.00000000E+00  0.00000000E+00
  0.00000000E+00  0.00000000E+00  0.00000000E+00  0.00000000E+00  0.00000000E+00
  0.00000000E+00  0.00000000E+00
Nuclear GFac                               R   N=          12
  0.00000000E+00  0.00000000E+00  0.00000000E+00  0.00000000E+00  0.00000000E+00
  0.00000000E+00  2.79284600E+00  2.79284600E+00  2.79284600E+00  2.79284600E+00
  2.79284600E+00  2.79284600E+00
MicOpt                                     I   N=          12
          -1          -1          -1          -1          -1          -1
          -1          -1          -1          -1          -1          -1
Number of contracted shells                I               66
Number of primitive shells                 I              120
Pure/Cartesian d shells                    I                0
Pure/Cartesian f shells                    I                0
Highest angular momentum                   I                2
Largest degree of contraction              I                6
Shell types                                I   N=          66
           0          -1          -1          -1          -1          -2
           0          -1          -1          -1          -1          -2
           0          -1          -1          -1          -1          -2
           0          -1          -1          -1          -1          -2
           0          -1          -1          -1          -1          -2
           0          -1          -1          -1          -1          -2
           0           0           0           0           1           0
           0           0           0           1           0           0
           0           0           1           0           0           0
           0           1           0           0           0           0
           1           0           0           0           0           1
Number of primitives per shell             I   N=          66
           6           3           1           1           1           1
           6           3           1           1           1           1
           6           3           1           1           1           1
           6           3           1           1           1           1
           6           3           1           1           1           1
           6           3           1           1           1           1
           3           1           1           1           1           3
           1           1           1           1           3           1
           1           1           1           3           1           1
           1           1           3           1           1           1
           1           3           1           1           1           1
Shell to atom map                          I   N=          66
           1           1           1           1           1           1
           2           2           2           2           2           2
           3           3           3           3           3           3
           4           4           4           4           4           4
           5           5           5           5           5           5
           6           6           6           6           6           6
           7           7           7           7           7           8
           8           8           8           8           9           9
           9           9           9          10          10          10
          10          10          11          11          11          11
          11          12          12          12          12          12
Primitive exponents                        R   N=         120
  4.56324000E+03  6.82024000E+02  1.54973000E+02  4.44553000E+01  1.30290000E+01
  1.82773000E+00  2.09642000E+01  4.80331000E+00  1.45933000E+00  4.83456000E-01
  1.45585000E-01  4.38000000E-02  6.26000000E-01  4.56324000E+03  6.82024000E+02
  1.54973000E+02  4.44553000E+01  1.30290000E+01  1.82773000E+00  2.09642000E+01
  4.80331000E+00  1.45933000E+00  4.83456000E-01  1.45585000E-01  4.38000000E-02
  6.26000000E-01  4.56324000E+03  6.82024000E+02  1.54973000E+02  4.44553000E+01
  1.30290000E+01  1.82773000E+00  2.09642000E+01  4.80331000E+00  1.45933000E+00
  4.83456000E-01  1.45585000E-01  4.38000000E-02  6.26000000E-01  4.56324000E+03
  6.82024000E+02  1.54973000E+02  4.44553000E+01  1.30290000E+01  1.82773000E+00
  2.09642000E+01  4.80331000E+00  1.45933000E+00  4.83456000E-01  1.45585000E-01
  4.38000000E-02  6.26000000E-01  4.56324000E+03  6.82024000E+02  1.54973000E+02
  4.44553000E+01  1.30290000E+01  1.82773000E+00  2.09642000E+01  4.80331000E+00
  1.45933000E+00  4.83456000E-01  1.45585000E-01  4.38000000E-02  6.26000000E-01
  4.56324000E+03  6.82024000E+02  1.54973000E+02  4.44553000E+01  1.30290000E+01
  1.82773000E+00  2.09642000E+01  4.80331000E+00  1.45933000E+00  4.83456000E-01
  1.45585000E-01  4.38000000E-02  6.26000000E-01  3.38650000E+01  5.09479000E+00
  1.15879000E+00  3.25840000E-01  1.02741000E-01  3.60000000E-02  7.50000000E-01
  3.38650000E+01  5.09479000E+00  1.15879000E+00  3.25840000E-01  1.02741000E-01
  3.60000000E-02  7.50000000E-01  3.38650000E+01  5.09479000E+00  1.15879000E+00
  3.25840000E-01  1.02741000E-01  3.60000000E-02  7.50000000E-01  3.38650000E+01
  5.09479000E+00  1.15879000E+00  3.25840000E-01  1.02741000E-01  3.60000000E-02
  7.50000000E-01  3.38650000E+01  5.09479000E+00  1.15879000E+00  3.25840000E-01
  1.02741000E-01  3.60000000E-02  7.50000000E-01  3.38650000E+01  5.09479000E+00
  1.15879000E+00  3.25840000E-01  1.02741000E-01  3.60000000E-02  7.50000000E-01
Contraction coefficients                   R   N=         120
  1.96665025E-03  1.52306019E-02  7.61269097E-02  2.60801033E-01  6.16462078E-01
  2.21006028E-01  1.14660081E-01  9.19999648E-01 -3.03068213E-03  1.00000000E+00
  1.00000000E+00  1.00000000E+00  1.00000000E+00  1.96665025E-03  1.52306019E-02
  7.61269097E-02  2.60801033E-01  6.16462078E-01  2.21006028E-01  1.14660081E-01
  9.19999648E-01 -3.03068213E-03  1.00000000E+00  1.00000000E+00  1.00000000E+00
  1.00000000E+00  1.96665025E-03  1.52306019E-02  7.61269097E-02  2.60801033E-01
  6.16462078E-01  2.21006028E-01  1.14660081E-01  9.19999648E-01 -3.03068213E-03
  1.00000000E+00  1.00000000E+00  1.00000000E+00  1.00000000E+00  1.96665025E-03
  1.52306019E-02  7.61269097E-02  2.60801033E-01  6.16462078E-01  2.21006028E-01
  1.14660081E-01  9.19999648E-01 -3.03068213E-03  1.00000000E+00  1.00000000E+00
  1.00000000E+00  1.00000000E+00  1.96665025E-03  1.52306019E-02  7.61269097E-02
  2.60801033E-01  6.16462078E-01  2.21006028E-01  1.14660081E-01  9.19999648E-01
 -3.03068213E-03  1.00000000E+00  1.00000000E+00  1.00000000E+00  1.00000000E+00
  1.96665025E-03  1.52306019E-02  7.61269097E-02  2.60801033E-01  6.16462078E-01
  2.21006028E-01  1.14660081E-01  9.19999648E-01 -3.03068213E-03  1.00000000E+00
  1.00000000E+00  1.00000000E+00  1.00000000E+00  2.54938145E-02  1.90373109E-01
  8.52161486E-01  1.00000000E+00  1.00000000E+00  1.00000000E+00  1.00000000E+00
  2.54938145E-02  1.90373109E-01  8.52161486E-01  1.00000000E+00  1.00000000E+00
  1.00000000E+00  1.00000000E+00  2.54938145E-02  1.90373109E-01  8.52161486E-01
  1.00000000E+00  1.00000000E+00  1.00000000E+00  1.00000000E+00  2.54938145E-02
  1.90373109E-01  8.52161486E-01  1.00000000E+00  1.00000000E+00  1.00000000E+00
  1.00000000E+00  2.54938145E-02  1.90373109E-01  8.52161486E-01  1.00000000E+00
  1.00000000E+00  1.00000000E+00  1.00000000E+00  2.54938145E-02  1.90373109E-01
  8.52161486E-01  1.00000000E+00  1.00000000E+00  1.00000000E+00  1.00000000E+00
P(S=P) Contraction coefficients            R   N=         120
  0.00000000E+00  0.00000000E+00  0.00000000E+00  0.00000000E+00  0.00000000E+00
  0.00000000E+00  4.02486927E-02  2.37593957E-01  8.15853851E-01  1.00000000E+00
  1.00000000E+00  1.00000000E+00  0.00000000E+00  0.00000000E+00  0.00000000E+00
  0.00000000E+00  0.00000000E+00  0.00000000E+00  0.00000000E+00  4.02486927E-02
  2.37593957E-01  8.15853851E-01  1.00000000E+00  1.00000000E+00  1.00000000E+00
  0.00000000E+00  0.00000000E+00  0.00000000E+00  0.00000000E+00  0.00000000E+00
  0.00000000E+00  0.00000000E+00  4.02486927E-02  2.37593957E-01  8.15853851E-01
  1.00000000E+00  1.00000000E+00  1.00000000E+00  0.00000000E+00  0.00000000E+00
  0.00000000E+00  0.00000000E+00  0.00000000E+00  0.00000000E+00  0.00000000E+00
  4.02486927E-02  2.37593957E-01  8.15853851E-01  1.00000000E+00  1.00000000E+00
  1.00000000E+00  0.00000000E+00  0.00000000E+00  0.00000000E+00  0.00000000E+00
  0.00000000E+00  0.00000000E+00  0.00000000E+00  4.02486927E-02  2.37593957E-01
  8.15853851E-01  1.00000000E+00  1.00000000E+00  1.00000000E+00  0.00000000E+00
  0.00000000E+00  0.00000000E+00  0.00000000E+00  0.00000000E+00  0.00000000E+00
  0.00000000E+00  4.02486927E-02  2.37593957E-01  8.15853851E-01  1.00000000E+00
  1.00000000E+00  1.00000000E+00  0.00000000E+00  0.00000000E+00  0.00000000E+00
  0.00000000E+00  0.00000000E+00  0.00000000E+00  0.00000000E+00  0.00000000E+00
  0.00000000E+00  0.00000000E+00  0.00000000E+00  0.00000000E+00  0.00000000E+00
  0.00000000E+00  0.00000000E+00  0.00000000E+00  0.00000000E+00  0.00000000E+00
  0.00000000E+00  0.00000000E+00  0.00000000E+00  0.00000000E+00  0.00000000E+00
  0.00000000E+00  0.00000000E+00  0.00000000E+00  0.00000000E+00  0.00000000E+00
  0.00000000E+00  0.00000000E+00  0.00000000E+00  0.00000000E+00  0.00000000E+00
  0.00000000E+00  0.00000000E+00  0.00000000E+00  0.00000000E+00  0.00000000E+00
  0.00000000E+00  0.00000000E+00  0.00000000E+00  0.00000000E+00  0.00000000E+00
Coordinates of each shell                  R   N=         198
 -2.28348270E+00  1.31840523E+00 -5.08376824E-02 -2.28348270E+00  1.31840523E+00
 -5.08376824E-02 -2.28348270E+00  1.31840523E+00 -5.08376824E-02 -2.28348270E+00
  1.31840523E+00 -5.08376824E-02 -2.28348270E+00  1.31840523E+00 -5.08376824E-02
 -2.28348270E+00  1.31840523E+00 -5.08376824E-02 -2.28348270E+00 -1.31840523E+00
 -5.08376824E-02 -2.28348270E+00 -1.31840523E+00 -5.08376824E-02 -2.28348270E+00
 -1.31840523E+00 -5.08376824E-02 -2.28348270E+00 -1.31840523E+00 -5.08376824E-02
 -2.28348270E+00 -1.31840523E+00 -5.08376824E-02 -2.28348270E+00 -1.31840523E+00
 -5.08376824E-02  0.00000000E+00 -2.63692763E+00 -5.08698077E-02  0.00000000E+00
 -2.63692763E+00 -5.08698077E-02  0.00000000E+00 -2.63692763E+00 -5.08698077E-02
  0.00000000E+00 -2.63692763E+00 -5.08698077E-02  0.00000000E+00 -2.63692763E+00
 -5.08698077E-02  0.00000000E+00 -2.63692763E+00 -5.08698077E-02  2.28348270E+00
 -1.31840523E+00 -5.08376824E-02  2.28348270E+00 -1.31840523E+00 -5.08376824E-02
  2.28348270E+00 -1.31840523E+00 -5.08376824E-02  2.28348270E+00 -1.31840523E+00
 -5.08376824E-02  2.28348270E+00 -1.31840523E+00 -5.08376824E-02  2.28348270E+00
 -1.31840523E+00 -5.08376824E-02  2.28348270E+00  1.31840523E+00 -5.08376824E-02
  2.28348270E+00  1.31840523E+00 -5.08376824E-02  2.28348270E+00  1.31840523E+00
 -5.08376824E-02  2.28348270E+00  1.31840523E+00 -5.08376824E-02  2.28348270E+00
  1.31840523E+00 -5.08376824E-02  2.28348270E+00  1.31840523E+00 -5.08376824E-02
  3.22930498E-16  2.63692763E+00 -5.08698077E-02  3.22930498E-16  2.63692763E+00
 -5.08698077E-02  3.22930498E-16  2.63692763E+00 -5.08698077E-02  3.22930498E-16
  2.63692763E+00 -5.08698077E-02  3.22930498E-16  2.63692763E+00 -5.08698077E-02
  3.22930498E-16  2.63692763E+00 -5.08698077E-02 -4.03172315E+00  2.32762103E+00
  3.05101683E-01 -4.03172315E+00  2.32762103E+00  3.05101683E-01 -4.03172315E+00
  2.32762103E+00  3.05101683E-01 -4.03172315E+00  2.32762103E+00  3.05101683E-01
 -4.03172315E+00  2.32762103E+00  3.05101683E-01 -4.03172315E+00 -2.32762103E+00
  3.05101683E-01 -4.03172315E+00 -2.32762103E+00  3.05101683E-01 -4.03172315E+00
 -2.32762103E+00  3.05101683E-01 -4.03172315E+00 -2.32762103E+00  3.05101683E-01
 -4.03172315E+00 -2.32762103E+00  3.05101683E-01  0.00000000E+00 -4.65554442E+00
  3.05067668E-01  0.00000000E+00 -4.65554442E+00  3.05067668E-01  0.00000000E+00
 -4.65554442E+00  3.05067668E-01  0.00000000E+00 -4.65554442E+00  3.05067668E-01
  0.00000000E+00 -4.65554442E+00  3.05067668E-01  4.03172315E+00 -2.32762103E+00
  3.05101683E-01  4.03172315E+00 -2.32762103E+00  3.05101683E-01  4.03172315E+00
 -2.32762103E+00  3.05101683E-01  4.03172315E+00 -2.32762103E+00  3.05101683E-01
  4.03172315E+00 -2.32762103E+00  3.05101683E-01  4.03172315E+00  2.32762103E+00
  3.05101683E-01  4.03172315E+00  2.32762103E+00  3.05101683E-01  4.03172315E+00
  2.32762103E+00  3.05101683E-01  4.03172315E+00  2.32762103E+00  3.05101683E-01
  4.03172315E+00  2.32762103E+00  3.05101683E-01  5.70139757E-16  4.65554442E+00
  3.05067668E-01  5.70139757E-16  4.65554442E+00  3.05067668E-01  5.70139757E-16
  4.65554442E+00  3.05067668E-01  5.70139757E-16  4.65554442E+00  3.05067668E-01
  5.70139757E-16  4.65554442E+00  3.05067668E-01
Constraint Structure                       R   N=          36
 -2.28348270E+00  1.31840523E+00 -5.08376824E-02 -2.28348270E+00 -1.31840523E+00
 -5.08376824E-02  0.00000000E+00 -2.63692763E+00 -5.08698077E-02  2.28348270E+00
 -1.31840523E+00 -5.08376824E-02  2.28348270E+00  1.31840523E+00 -5.08376824E-02
  3.22930498E-16  2.63692763E+00 -5.08698077E-02 -4.03172315E+00  2.32762103E+00
  3.05101683E-01 -4.03172315E+00 -2.32762103E+00  3.05101683E-01  0.00000000E+00
 -4.65554442E+00  3.05067668E-01  4.03172315E+00 -2.32762103E+00  3.05101683E-01
  4.03172315E+00  2.32762103E+00  3.05101683E-01  5.70139757E-16  4.65554442E+00
  3.05067668E-01
Num ILSW                                   I              100
ILSW                                       I   N=         100
           0           0           0           0           2           0
           0           0           0           0           0          -1
           0           0           0           0           0           0
           0           0           0           0           0           0
           1           0           0           0           0           0
           0           0      100000           0          -1           0
           0           0           0           0           0           0
           0           0           0           1           0           0
           0           0           1           0           0           0
           0           0           4          40           0           0
           0           0           0           0           0           0
           0           0           0           0           0           0
           0           0           0           0           0           0
           0           0           0           0           0           0
           0           0           0           0           0           0
           0           0           0           0           0           0
           0           0           0           0
Num RLSW                                   I               40
RLSW                                       R   N=          40
  1.00000000E+00  1.00000000E+00  1.00000000E+00  1.00000000E+00  1.00000000E+00
  0.00000000E+00  0.00000000E+00  1.00000000E+00  0.00000000E+00  0.00000000E+00
  0.00000000E+00  0.00000000E+00  1.00000000E+00  0.00000000E+00  0.00000000E+00
  0.00000000E+00  0.00000000E+00  1.00000000E+00  0.00000000E+00  0.00000000E+00
  0.00000000E+00  0.00000000E+00  1.00000000E+00  0.00000000E+00  0.00000000E+00
  0.00000000E+00  0.00000000E+00  1.00000000E+00  0.00000000E+00  0.00000000E+00
  0.00000000E+00  0.00000000E+00  0.00000000E+00  0.00000000E+00  0.00000000E+00
  0.00000000E+00  0.00000000E+00  0.00000000E+00  1.00000000E+00  1.00000000E+00
MxBond                                     I                3
NBond                                      I   N=          12
           3           3           3           3           3           3
           1           1           1           1           1           1
IBond                                      I   N=          36
           2           6           7           1           3           8
           2           4           9           3           5          10
           4           6          11           1           5          12
           1           0           0           2           0           0
           3           0           0           4           0           0
           5           0           0           6           0           0
RBond                                      R   N=          36
  1.50000000E+00  1.50000000E+00  1.00000000E+00  1.50000000E+00  1.50000000E+00
  1.00000000E+00  1.50000000E+00  1.50000000E+00  1.00000000E+00  1.50000000E+00
  1.50000000E+00  1.00000000E+00  1.50000000E+00  1.50000000E+00  1.00000000E+00
  1.50000000E+00  1.50000000E+00  1.00000000E+00  1.00000000E+00  0.00000000E+00
  0.00000000E+00  1.00000000E+00  0.00000000E+00  0.00000000E+00  1.00000000E+00
  0.00000000E+00  0.00000000E+00  1.00000000E+00  0.00000000E+00  0.00000000E+00
  1.00000000E+00  0.00000000E+00  0.00000000E+00  1.00000000E+00  0.00000000E+00
  0.00000000E+00
Virial Ratio                               R      2.001297151095325E+00
SCF Energy                                 R     -2.307484901991941E+02
MP2 Energy                                 R     -2.315780220835195E+02
Total Energy                               R     -2.315780220835195E+02
Post-SCF wavefunction norm                 R      1.143995477283867E+00
RMS Density                                R      5.476100016207827E-09
External E-field                           R   N=          35
  0.00000000E+00  0.00000000E+00  0.00000000E+00  0.00000000E+00  0.00000000E+00
  0.00000000E+00  0.00000000E+00  0.00000000E+00  0.00000000E+00  0.00000000E+00
  0.00000000E+00  0.00000000E+00  0.00000000E+00  0.00000000E+00  0.00000000E+00
  0.00000000E+00  0.00000000E+00  0.00000000E+00  0.00000000E+00  0.00000000E+00
  0.00000000E+00  0.00000000E+00  0.00000000E+00  0.00000000E+00  0.00000000E+00
  0.00000000E+00  0.00000000E+00  0.00000000E+00  0.00000000E+00  0.00000000E+00
  0.00000000E+00  0.00000000E+00  0.00000000E+00  0.00000000E+00  0.00000000E+00
IOpCl                                      I                0
IROHF                                      I                0
Alpha Orbital Energies                     R   N=         173
 -1.12398376E+01 -1.12392710E+01 -1.12392680E+01 -1.12380442E+01 -1.12380413E+01
 -1.12374419E+01 -1.15262406E+00 -1.01700866E+00 -1.01699847E+00 -8.25415985E-01
 -8.25402616E-01 -7.10585837E-01 -6.43248714E-01 -6.20925985E-01 -5.89485760E-01
 -5.89461297E-01 -5.02159137E-01 -4.95474399E-01 -4.95454211E-01 -3.37056228E-01
 -3.37049153E-01  4.24552063E-02  5.03403473E-02  5.03415645E-02  6.76678730E-02
  6.76689693E-02  9.75037991E-02  1.07082731E-01  1.07091020E-01  1.27007024E-01
  1.49816550E-01  1.49817662E-01  1.59914818E-01  1.63157631E-01  1.82063973E-01
  1.82066669E-01  1.89115790E-01  1.89120530E-01  1.93073955E-01  2.07598056E-01
  2.13193491E-01  2.13196971E-01  2.15643377E-01  2.15645840E-01  2.27868454E-01
  2.27874660E-01  2.46525096E-01  2.50969199E-01  2.51856901E-01  2.88901613E-01
  2.88903495E-01  3.03445249E-01  3.06592426E-01  3.54211341E-01  3.93629146E-01
  3.93646901E-01  4.28051755E-01  4.29051943E-01  4.29054207E-01  4.91373961E-01
  4.91379784E-01  5.06374358E-01  5.06375435E-01  6.00067628E-01  6.04171668E-01
  7.16132002E-01  7.22323143E-01  7.26293095E-01  7.26328888E-01  7.52411593E-01
  7.55142176E-01  7.55145105E-01  7.55828668E-01  7.55834770E-01  7.94856395E-01
  8.15575171E-01  8.15578952E-01  8.55104270E-01  9.28352453E-01  9.32036209E-01
  9.32978662E-01  9.45034619E-01  9.45057401E-01  9.48520032E-01  9.48552947E-01
  9.51439981E-01  9.93275474E-01  9.93280065E-01  1.10121404E+00  1.10668619E+00
  1.10669349E+00  1.12920127E+00  1.15999971E+00  1.16000415E+00  1.18911478E+00
  1.24319680E+00  1.37587482E+00  1.37590651E+00  1.40002198E+00  1.46976836E+00
  1.46979126E+00  1.55582386E+00  1.71577323E+00  1.77829916E+00  1.77837165E+00
  1.78639532E+00  1.82776825E+00  1.82777476E+00  1.89142509E+00  1.91330493E+00
  1.91335589E+00  1.93975747E+00  1.93979168E+00  1.99284275E+00  2.05181326E+00
  2.05183519E+00  2.09265626E+00  2.09267717E+00  2.12846699E+00  2.18778397E+00
  2.20504865E+00  2.20506794E+00  2.29568174E+00  2.29571993E+00  2.29752374E+00
  2.32728261E+00  2.32728317E+00  2.39346290E+00  2.39348899E+00  2.62149749E+00
  2.68607737E+00  2.72002266E+00  2.72005185E+00  2.73589129E+00  2.80511645E+00
  2.80516808E+00  2.92445276E+00  2.93739963E+00  2.93744839E+00  2.98763732E+00
  3.00267356E+00  3.00269958E+00  3.01280630E+00  3.01280706E+00  3.03674591E+00
  3.05988476E+00  3.20347003E+00  3.20348624E+00  3.25773285E+00  3.29713696E+00
  3.29716044E+00  3.31391860E+00  3.31394352E+00  3.50162873E+00  3.54292317E+00
  3.76763353E+00  3.76763839E+00  3.89856467E+00  3.89857844E+00  3.90449013E+00
  4.03941653E+00  4.40158783E+00  4.40161613E+00  4.50214447E+00  4.55081548E+00
  4.55084198E+00  5.25641317E+00  2.47365327E+01  2.51298804E+01  2.51298832E+01
  2.52513856E+01  2.52513969E+01  2.53464185E+01
Alpha MO coefficients                      R   N=       30102
  2.29722994E-01  1.90207651E-01  2.25049540E-05 -1.27805711E-05 -4.60542269E-05
  2.01608534E-03  1.64115147E-04 -9.46086034E-05  3.32493386E-05 -3.65476567E-04
 -1.64473890E-05  9.46752936E-06 -1.57753786E-05  2.04132959E-05  1.09601298E-04
 -6.33478165E-05 -4.35838827E-06 -1.15319982E-04 -4.30097077E-06  2.46984128E-06
 -3.23432766E-05  5.61264966E-05  2.29722994E-01  1.90207651E-01  2.25049540E-05
  1.27805711E-05 -4.60542269E-05  2.01608534E-03  1.64115147E-04  9.46086034E-05
  3.32493386E-05 -3.65476567E-04 -1.64473890E-05 -9.46752936E-06 -1.57753786E-05
  2.04132959E-05  1.09601298E-04  6.33478165E-05 -4.35838827E-06 -1.15319982E-04
 -4.30097077E-06 -2.46984128E-06 -3.23432766E-05 -5.61264966E-05  2.30282156E-01
  1.90670824E-01  0.00000000E+00  2.56465634E-05 -4.61693340E-05  2.02001504E-03
  0.00000000E+00  1.89600614E-04  3.33857583E-05 -3.66096737E-04  0.00000000E+00
 -1.93112620E-05 -1.58556168E-05  2.54487545E-05  0.00000000E+00  1.28715789E-04
 -4.47635069E-06 -1.15801763E-04  0.00000000E+00 -5.03192022E-06  6.48102123E-05
  0.00000000E+00  2.29722994E-01  1.90207651E-01 -2.25049540E-05  1.27805711E-05
 -4.60542269E-05  2.01608534E-03 -1.64115147E-04  9.46086034E-05  3.32493386E-05
 -3.65476567E-04  1.64473890E-05 -9.46752936E-06 -1.57753786E-05  2.04132959E-05
 -1.09601298E-04  6.33478165E-05 -4.35838827E-06 -1.15319982E-04  4.30097077E-06
 -2.46984128E-06 -3.23432766E-05  5.61264966E-05  2.29722994E-01  1.90207651E-01
 -2.25049540E-05 -1.27805711E-05 -4.60542269E-05  2.01608534E-03 -1.64115147E-04
 -9.46086034E-05  3.32493386E-05 -3.65476567E-04  1.64473890E-05  9.46752936E-06
 -1.57753786E-05  2.04132959E-05 -1.09601298E-04 -6.33478165E-05 -4.35838827E-06
 -1.15319982E-04  4.30097077E-06  2.46984128E-06 -3.23432766E-05 -5.61264966E-05
  2.30282156E-01  1.90670824E-01  0.00000000E+00 -2.56465634E-05 -4.61693340E-05
  2.02001504E-03  0.00000000E+00 -1.89600614E-04  3.33857583E-05 -3.66096737E-04
  0.00000000E+00  1.93112620E-05 -1.58556168E-05  2.54487545E-05  0.00000000E+00
 -1.28715789E-04 -4.47635069E-06 -1.15801763E-04  0.00000000E+00  5.03192022E-06
  6.48102123E-05  0.00000000E+00  1.75190313E-04 -4.35945611E-06  1.76111729E-04
  4.38088259E-06  2.56644960E-05 -1.47933741E-05 -8.82208788E-06  1.75190313E-04
 -4.35945611E-06  1.76111729E-04  4.38088259E-06  2.56644960E-05  1.47933741E-05
 -8.82208788E-06  1.75598106E-04 -4.59572866E-06  1.76526379E-04  5.16055243E-06
  0.00000000E+00  2.96071534E-05 -8.81272195E-06  1.75190313E-04 -4.35945611E-06
  1.76111729E-04  4.38088259E-06 -2.56644960E-05  1.47933741E-05 -8.82208788E-06
  1.75190313E-04 -4.35945611E-06  1.76111729E-04  4.38088259E-06 -2.56644960E-05
 -1.47933741E-05 -8.82208788E-06  1.75598106E-04 -4.59572866E-06  1.76526379E-04
  5.16055243E-06  0.00000000E+00 -2.96071534E-05 -8.81272195E-06 -1.62333656E-01
 -1.34430236E-01 -7.96997139E-05 -1.40481670E-04  3.48970737E-05 -1.32673483E-03
 -1.28837805E-04 -6.69776982E-05 -3.61044044E-05  1.32685132E-04  1.09747008E-04
  1.75476303E-04  1.52986470E-05  3.71684509E-04 -8.26618243E-04 -4.25556147E-04
  3.83406435E-05  9.53113230E-05  1.76110201E-05  1.11102883E-05 -5.50299382E-05
 -8.29723434E-05  1.62333656E-01  1.34430236E-01  7.96997139E-05 -1.40481670E-04
 -3.48970737E-05  1.32673483E-03  1.28837805E-04 -6.69776982E-05  3.61044044E-05
 -1.32685132E-04 -1.09747008E-04  1.75476303E-04 -1.52986470E-05 -3.71684509E-04
  8.26618243E-04 -4.25556147E-04 -3.83406435E-05 -9.53113230E-05 -1.76110201E-05
  1.11102883E-05  5.50299382E-05 -8.29723434E-05  3.25443933E-01  2.69503843E-01
  0.00000000E+00 -3.00284224E-06 -6.99309319E-05  2.65866893E-03  0.00000000E+00
  1.56585904E-04  7.23605701E-05 -2.74797351E-04  0.00000000E+00 -2.43502407E-05
 -2.98219353E-05 -1.20776407E-03  0.00000000E+00  8.93830778E-04 -6.84075156E-05
 -1.91413470E-04  0.00000000E+00 -1.95790630E-05  8.83229366E-05  0.00000000E+00
  1.62333656E-01  1.34430236E-01 -7.96997139E-05 -1.40481670E-04 -3.48970737E-05
  1.32673483E-03 -1.28837805E-04 -6.69776982E-05  3.61044044E-05 -1.32685132E-04
  1.09747008E-04  1.75476303E-04 -1.52986470E-05 -3.71684509E-04 -8.26618243E-04
 -4.25556147E-04 -3.83406435E-05 -9.53113230E-05  1.76110201E-05  1.11102883E-05
  5.50299382E-05  8.29723434E-05 -1.62333656E-01 -1.34430236E-01  7.96997139E-05
 -1.40481670E-04  3.48970737E-05 -1.32673483E-03  1.28837805E-04 -6.69776982E-05
 -3.61044044E-05  1.32685132E-04 -1.09747008E-04  1.75476303E-04  1.52986470E-05
  3.71684509E-04  8.26618243E-04 -4.25556147E-04  3.83406435E-05  9.53113230E-05
 -1.76110201E-05  1.11102883E-05 -5.50299382E-05  8.29723434E-05 -3.25443933E-01
 -2.69503843E-01  0.00000000E+00 -3.00284224E-06  6.99309319E-05 -2.65866893E-03
  0.00000000E+00  1.56585904E-04 -7.23605701E-05  2.74797351E-04  0.00000000E+00