 Entering Gaussian System, Link 0=g09
 Initial command:
 /apps/software//g09/l1.exe /scratch/itamar/2476.cluster.abaxnet/Gau-30427.inp -scrdir=/scratch/itamar/2476.cluster.abaxnet/
 Entering Link 1 = /apps/software//g09/l1.exe PID=     30428.
  
 Copyright (c) 1988,1990,1992,1993,1995,1998,2003,2009, Gaussian, Inc.
                  All Rights Reserved.
  
 This is part of the Gaussian(R) 09 program.  It is based on
 the Gaussian(R) 03 system (copyright 2003, Gaussian, Inc.),
 the Gaussian(R) 98 system (copyright 1998, Gaussian, Inc.),
 the Gaussian(R) 94 system (copyright 1995, Gaussian, Inc.),
 the Gaussian 92(TM) system (copyright 1992, Gaussian, Inc.),
 the Gaussian 90(TM) system (copyright 1990, Gaussian, Inc.),
 the Gaussian 88(TM) system (copyright 1988, Gaussian, Inc.),
 the Gaussian 86(TM) system (copyright 1986, Carnegie Mellon
 University), and the Gaussian 82(TM) system (copyright 1983,
 Carnegie Mellon University). Gaussian is a federally registered
 trademark of Gaussian, Inc.
  
 This software contains proprietary and confidential information,
 including trade secrets, belonging to Gaussian, Inc.
  
 This software is provided under written license and may be
 used, copied, transmitted, or stored only in accord with that
 written license.
  
 The following legend is applicable only to US Government
 contracts under FAR:
  
                    RESTRICTED RIGHTS LEGEND
  
 Use, reproduction and disclosure by the US Government is
 subject to restrictions as set forth in subparagraphs (a)
 and (c) of the Commercial Computer Software - Restricted
 Rights clause in FAR 52.227-19.
  
 Gaussian, Inc.
 340 Quinnipiac St., Bldg. 40, Wallingford CT 06492
  
  
 ---------------------------------------------------------------
 Warning -- This program may not be used in any manner that
 competes with the business of Gaussian, Inc. or will provide
 assistance to any competitor of Gaussian, Inc.  The licensee
 of this program is prohibited from giving any competitor of
 Gaussian, Inc. access to this program.  By using this program,
 the user acknowledges that Gaussian, Inc. is engaged in the
 business of creating and licensing software in the field of
 computational chemistry and represents and warrants to the
 licensee that it is not a competitor of Gaussian, Inc. and that
 it will not use this program in any manner prohibited above.
 ---------------------------------------------------------------
  

 Cite this work as:
 Gaussian 09, Revision A.02,
 M. J. Frisch, G. W. Trucks, H. B. Schlegel, G. E. Scuseria, 
 M. A. Robb, J. R. Cheeseman, G. Scalmani, V. Barone, B. Mennucci, 
 G. A. Petersson, H. Nakatsuji, M. Caricato, X. Li, H. P. Hratchian, 
 A. F. Izmaylov, J. Bloino, G. Zheng, J. L. Sonnenberg, M. Hada, 
 M. Ehara, K. Toyota, R. Fukuda, J. Hasegawa, M. Ishida, T. Nakajima, 
 Y. Honda, O. Kitao, H. Nakai, T. Vreven, J. A. Montgomery, Jr., 
 J. E. Peralta, F. Ogliaro, M. Bearpark, J. J. Heyd, E. Brothers, 
 K. N. Kudin, V. N. Staroverov, R. Kobayashi, J. Normand, 
 K. Raghavachari, A. Rendell, J. C. Burant, S. S. Iyengar, J. Tomasi, 
 M. Cossi, N. Rega, J. M. Millam, M. Klene, J. E. Knox, J. B. Cross, 
 V. Bakken, C. Adamo, J. Jaramillo, R. Gomperts, R. E. Stratmann, 
 O. Yazyev, A. J. Austin, R. Cammi, C. Pomelli, J. W. Ochterski, 
 R. L. Martin, K. Morokuma, V. G. Zakrzewski, G. A. Voth, 
 P. Salvador, J. J. Dannenberg, S. Dapprich, A. D. Daniels, 
 O. Farkas, J. B. Foresman, J. V. Ortiz, J. Cioslowski, 
 and D. J. Fox, Gaussian, Inc., Wallingford CT, 2009.
 
 ******************************************
 Gaussian 09:  EM64L-G09RevA.02 11-Jun-2009
                 3-Dec-2021 
 ******************************************
 %Mem=3800MB
 %NProcShared=6
 Will use up to    6 processors via shared memory.
 %chk=/home/itamar/Aromaticity-test-set/T9-N6/n6.chk
 -----------------------------
 #P MP2/6-311++G** DENSITY=MP2
 -----------------------------
 1/30=1,38=1/1;
 2/12=2,17=6,18=5,40=1/2;
 3/5=4,6=6,7=1111,11=9,16=1,25=1,30=1,71=1/1,2,3;
 4//1;
 5/5=2,38=5/2;
 8/6=4,10=2/1;
 9/15=1,16=-3/6;
 10/5=1,13=10/2;
 6/7=2,8=2,9=2,10=2,22=2/1;
 99/5=1,9=1/99;
 Leave Link    1 at Fri Dec  3 17:06:50 2021, MaxMem=  498073600 cpu:       0.2
 (Enter /apps/software//g09/l101.exe)
 --
 N6
 --
 Symbolic Z-matrix:
 Charge =  0 Multiplicity = 1
 7                     1.13232   0.63764   0.1824 
 7                     1.13231  -0.63765  -0.1824 
 7                    0.        -1.2796    0.00009 
 7                    -1.13232  -0.63761   0.18249 
 7                    -1.13232   0.63762  -0.18249 
 7                     0.00001   1.2796   -0.00009 
 
 NAtoms=      6 NQM=      6 NQMF=      0 NMic=      0 NMicF=      0 NTot=      6.
                    Isotopes and Nuclear Properties:
 (Nuclear quadrupole moments (NQMom) in fm**2, nuclear magnetic moments (NMagM)
  in nuclear magnetons)

  Atom         1           2           3           4           5           6
 IAtWgt=          14          14          14          14          14          14
 AtmWgt=  14.0030740  14.0030740  14.0030740  14.0030740  14.0030740  14.0030740
 NucSpn=           2           2           2           2           2           2
 AtZEff=   0.0000000   0.0000000   0.0000000   0.0000000   0.0000000   0.0000000
 NQMom=    2.0440000   2.0440000   2.0440000   2.0440000   2.0440000   2.0440000
 NMagM=    0.4037610   0.4037610   0.4037610   0.4037610   0.4037610   0.4037610
 Leave Link  101 at Fri Dec  3 17:06:50 2021, MaxMem=  498073600 cpu:       0.3
 (Enter /apps/software//g09/l202.exe)
                          Input orientation:                          
 ---------------------------------------------------------------------
 Center     Atomic      Atomic             Coordinates (Angstroms)
 Number     Number       Type             X           Y           Z
 ---------------------------------------------------------------------
      1          7           0        1.132320    0.637643    0.182396
      2          7           0        1.132315   -0.637649   -0.182399
      3          7           0       -0.000002   -1.279604    0.000093
      4          7           0       -1.132322   -0.637612    0.182493
      5          7           0       -1.132318    0.637618   -0.182490
      6          7           0        0.000006    1.279604   -0.000094
 ---------------------------------------------------------------------
                    Distance matrix (angstroms):
                    1          2          3          4          5
     1  N    0.000000
     2  N    1.326441   0.000000
     3  N    2.234105   1.314363   0.000000
     4  N    2.599015   2.293845   1.314371   0.000000
     5  N    2.293845   2.599013   2.234103   1.326433   0.000000
     6  N    1.314364   2.234103   2.559208   2.234104   1.314371
                    6
     6  N    0.000000
 Stoichiometry    N6
 Framework group  C1[X(N6)]
 Deg. of freedom    12
 Full point group                 C1      NOp   1
 Largest Abelian subgroup         C1      NOp   1
 Largest concise Abelian subgroup C1      NOp   1
                         Standard orientation:                         
 ---------------------------------------------------------------------
 Center     Atomic      Atomic             Coordinates (Angstroms)
 Number     Number       Type             X           Y           Z
 ---------------------------------------------------------------------
      1          7           0       -1.132327   -0.637631    0.182396
      2          7           0       -1.132308    0.637661   -0.182399
      3          7           0        0.000015    1.279604    0.000093
      4          7           0        1.132329    0.637600    0.182493
      5          7           0        1.132311   -0.637630   -0.182490
      6          7           0       -0.000020   -1.279604   -0.000094
 ---------------------------------------------------------------------
 Rotational constants (GHZ):      7.1690681      6.8590742      3.5983896
 Leave Link  202 at Fri Dec  3 17:06:50 2021, MaxMem=  498073600 cpu:       0.1
 (Enter /apps/software//g09/l301.exe)
 Standard basis: 6-311++G(d,p) (5D, 7F)
 Ernie: Thresh=  0.10000D-02 Tol=  0.10000D-05 Strict=F.
 There are   132 symmetry adapted basis functions of A   symmetry.
 Integral buffers will be    131072 words long.
 Raffenetti 1 integral format.
 Two-electron integral symmetry is turned on.
   132 basis functions,   216 primitive gaussians,   138 cartesian basis functions
    21 alpha electrons       21 beta electrons
       nuclear repulsion energy       217.1269186099 Hartrees.
 IExCor=    0 DFT=F Ex=HF Corr=None ExCW=0 ScaHFX=  1.000000
 ScaDFX=  1.000000  1.000000  1.000000  1.000000 ScalE2=  1.000000  1.000000
 IRadAn=      0 IRanWt=     -1 IRanGd=            0 ICorTp=0
 NAtoms=    6 NActive=    6 NUniq=    6 SFac= 7.50D-01 NAtFMM=   80 NAOKFM=F Big=F
 Leave Link  301 at Fri Dec  3 17:06:50 2021, MaxMem=  498073600 cpu:       0.2
 (Enter /apps/software//g09/l302.exe)
 NPDir=0 NMtPBC=     1 NCelOv=     1 NCel=       1 NClECP=     1 NCelD=      1
         NCelK=      1 NCelE2=     1 NClLst=     1 CellRange=     0.0.
 One-electron integrals computed using PRISM.
 NBasis=   132 RedAO= T  NBF=   132
 NBsUse=   132 1.00D-06 NBFU=   132
 Leave Link  302 at Fri Dec  3 17:06:50 2021, MaxMem=  498073600 cpu:       1.2
 (Enter /apps/software//g09/l303.exe)
 DipDrv:  MaxL=1.
 Leave Link  303 at Fri Dec  3 17:06:50 2021, MaxMem=  498073600 cpu:       0.1
 (Enter /apps/software//g09/l401.exe)
 Harris functional with IExCor=  205 diagonalized for initial guess.
 ExpMin= 6.39D-02 ExpMax= 6.29D+03 ExpMxC= 9.49D+02 IAcc=2 IRadAn=         0 AccDes= 0.00D+00
 HarFok:  IExCor=  205 AccDes= 0.00D+00 IRadAn=         0 IDoV= 1
 ScaDFX=  1.000000  1.000000  1.000000  1.000000
 FoFCou: FMM=F IPFlag=           0 FMFlag=      100000 FMFlg1=           0
         NFxFlg=           0 DoJE=T BraDBF=F KetDBF=T FulRan=T
         Omega=  0.000000  0.000000  1.000000  0.000000  0.000000 ICntrl=     500 IOpCl=  0
         NMat0=    1 NMatS0=    1 NMatT0=    0 NMatD0=    1 NMtDS0=    0 NMtDT0=    0
         I1Cent=           4 NGrid=           0.
 Petite list used in FoFCou.
 Harris En= -326.700177934383    
 Initial guess orbital symmetries:
       Occupied  (A) (A) (A) (A) (A) (A) (A) (A) (A) (A) (A) (A)
                 (A) (A) (A) (A) (A) (A) (A) (A) (A)
       Virtual   (A) (A) (A) (A) (A) (A) (A) (A) (A) (A) (A) (A)
                 (A) (A) (A) (A) (A) (A) (A) (A) (A) (A) (A) (A)
                 (A) (A) (A) (A) (A) (A) (A) (A) (A) (A) (A) (A)
                 (A) (A) (A) (A) (A) (A) (A) (A) (A) (A) (A) (A)
                 (A) (A) (A) (A) (A) (A) (A) (A) (A) (A) (A) (A)
                 (A) (A) (A) (A) (A) (A) (A) (A) (A) (A) (A) (A)
                 (A) (A) (A) (A) (A) (A) (A) (A) (A) (A) (A) (A)
                 (A) (A) (A) (A) (A) (A) (A) (A) (A) (A) (A) (A)
                 (A) (A) (A) (A) (A) (A) (A) (A) (A) (A) (A) (A)
                 (A) (A) (A)
 The electronic state of the initial guess is 1-A.
 Leave Link  401 at Fri Dec  3 17:06:51 2021, MaxMem=  498073600 cpu:       2.3
 (Enter /apps/software//g09/l502.exe)
 Closed shell SCF:
 Requested convergence on RMS density matrix=1.00D-08 within 128 cycles.
 Requested convergence on MAX density matrix=1.00D-06.
 Requested convergence on             energy=1.00D-06.
 No special actions if energy rises.
 Using DIIS extrapolation, IDIIS=  1040.
 Integral symmetry usage will be decided dynamically.
 Keep R1 ints in memory in canonical form, NReq=47418304.
 IEnd=       77114 IEndB=       77114 NGot=   498073600 MDV=   452033845
 LenX=   452033845 LenY=   452014360
 Symmetry not used in FoFDir.
 MinBra= 0 MaxBra= 2 Meth= 1.
 IRaf=       0 NMat=   1 IRICut=       1 DoRegI=T DoRafI=F ISym2E= 0 JSym2E=0.

 Cycle   1  Pass 1  IDiag  1:
 E= -326.385996556107    
 DIIS: error= 6.79D-02 at cycle   1 NSaved=   1.
 NSaved= 1 IEnMin= 1 EnMin= -326.385996556107     IErMin= 1 ErrMin= 6.79D-02
 ErrMax= 6.79D-02 EMaxC= 1.00D-01 BMatC= 4.45D-01 BMatP= 4.45D-01
 IDIUse=3 WtCom= 3.21D-01 WtEn= 6.79D-01
 Coeff-Com:  0.100D+01
 Coeff-En:   0.100D+01
 Coeff:      0.100D+01
 Gap=     0.442 Goal=   None    Shift=    0.000
 GapD=    0.442 DampG=2.000 DampE=0.500 DampFc=1.0000 IDamp=-1.
 RMSDP=5.83D-03 MaxDP=7.88D-02              OVMax= 4.70D-02

 Cycle   2  Pass 1  IDiag  1:
 E= -326.498215017556     Delta-E=       -0.112218461449 Rises=F Damp=F
 DIIS: error= 5.98D-03 at cycle   2 NSaved=   2.
 NSaved= 2 IEnMin= 2 EnMin= -326.498215017556     IErMin= 2 ErrMin= 5.98D-03
 ErrMax= 5.98D-03 EMaxC= 1.00D-01 BMatC= 4.56D-03 BMatP= 4.45D-01
 IDIUse=3 WtCom= 9.40D-01 WtEn= 5.98D-02
 Coeff-Com: -0.232D-01 0.102D+01
 Coeff-En:   0.000D+00 0.100D+01
 Coeff:     -0.218D-01 0.102D+01
 Gap=     0.453 Goal=   None    Shift=    0.000
 RMSDP=1.15D-03 MaxDP=2.20D-02 DE=-1.12D-01 OVMax= 2.53D-02

 Cycle   3  Pass 1  IDiag  1:
 E= -326.503242643953     Delta-E=       -0.005027626397 Rises=F Damp=F
 DIIS: error= 2.36D-03 at cycle   3 NSaved=   3.
 NSaved= 3 IEnMin= 3 EnMin= -326.503242643953     IErMin= 3 ErrMin= 2.36D-03
 ErrMax= 2.36D-03 EMaxC= 1.00D-01 BMatC= 3.95D-04 BMatP= 4.56D-03
 IDIUse=3 WtCom= 9.76D-01 WtEn= 2.36D-02
 Coeff-Com: -0.119D-01 0.101D+00 0.911D+00
 Coeff-En:   0.000D+00 0.000D+00 0.100D+01
 Coeff:     -0.116D-01 0.990D-01 0.913D+00
 Gap=     0.455 Goal=   None    Shift=    0.000
 RMSDP=5.15D-04 MaxDP=7.66D-03 DE=-5.03D-03 OVMax= 1.39D-02

 Cycle   4  Pass 1  IDiag  1:
 E= -326.504038722664     Delta-E=       -0.000796078711 Rises=F Damp=F
 DIIS: error= 1.47D-03 at cycle   4 NSaved=   4.
 NSaved= 4 IEnMin= 4 EnMin= -326.504038722664     IErMin= 4 ErrMin= 1.47D-03
 ErrMax= 1.47D-03 EMaxC= 1.00D-01 BMatC= 7.41D-05 BMatP= 3.95D-04
 IDIUse=3 WtCom= 9.85D-01 WtEn= 1.47D-02
 Coeff-Com:  0.114D-02-0.477D-01-0.103D+00 0.115D+01
 Coeff-En:   0.000D+00 0.000D+00 0.000D+00 0.100D+01
 Coeff:      0.112D-02-0.470D-01-0.102D+00 0.115D+01
 Gap=     0.456 Goal=   None    Shift=    0.000
 RMSDP=2.57D-04 MaxDP=3.10D-03 DE=-7.96D-04 OVMax= 1.06D-02

 Cycle   5  Pass 1  IDiag  1:
 E= -326.504340080648     Delta-E=       -0.000301357985 Rises=F Damp=F
 DIIS: error= 1.01D-03 at cycle   5 NSaved=   5.
 NSaved= 5 IEnMin= 5 EnMin= -326.504340080648     IErMin= 5 ErrMin= 1.01D-03
 ErrMax= 1.01D-03 EMaxC= 1.00D-01 BMatC= 2.67D-05 BMatP= 7.41D-05
 IDIUse=3 WtCom= 9.90D-01 WtEn= 1.01D-02
 Coeff-Com:  0.232D-02-0.282D-01-0.216D+00 0.357D+00 0.885D+00
 Coeff-En:   0.000D+00 0.000D+00 0.000D+00 0.000D+00 0.100D+01
 Coeff:      0.230D-02-0.279D-01-0.214D+00 0.353D+00 0.886D+00
 Gap=     0.457 Goal=   None    Shift=    0.000
 RMSDP=1.25D-04 MaxDP=1.20D-03 DE=-3.01D-04 OVMax= 7.20D-03

 Cycle   6  Pass 1  IDiag  1:
 E= -326.504442327933     Delta-E=       -0.000102247284 Rises=F Damp=F
 DIIS: error= 5.53D-04 at cycle   6 NSaved=   6.
 NSaved= 6 IEnMin= 6 EnMin= -326.504442327933     IErMin= 6 ErrMin= 5.53D-04
 ErrMax= 5.53D-04 EMaxC= 1.00D-01 BMatC= 5.90D-06 BMatP= 2.67D-05
 IDIUse=3 WtCom= 9.94D-01 WtEn= 5.53D-03
 Coeff-Com: -0.103D-02 0.212D-01 0.924D-01-0.374D+00-0.284D+00 0.155D+01
 Coeff-En:   0.000D+00 0.000D+00 0.000D+00 0.000D+00 0.000D+00 0.100D+01
 Coeff:     -0.102D-02 0.211D-01 0.919D-01-0.372D+00-0.283D+00 0.154D+01
 Gap=     0.457 Goal=   None    Shift=    0.000
 RMSDP=1.10D-04 MaxDP=1.24D-03 DE=-1.02D-04 OVMax= 6.11D-03

 Cycle   7  Pass 1  IDiag  1:
 E= -326.504486160926     Delta-E=       -0.000043832994 Rises=F Damp=F
 DIIS: error= 2.22D-04 at cycle   7 NSaved=   7.
 NSaved= 7 IEnMin= 7 EnMin= -326.504486160926     IErMin= 7 ErrMin= 2.22D-04
 ErrMax= 2.22D-04 EMaxC= 1.00D-01 BMatC= 1.16D-06 BMatP= 5.90D-06
 IDIUse=3 WtCom= 9.98D-01 WtEn= 2.22D-03
 Coeff-Com: -0.520D-03 0.680D-02 0.540D-01-0.705D-01-0.217D+00-0.912D-01
 Coeff-Com:  0.132D+01
 Coeff-En:   0.000D+00 0.000D+00 0.000D+00 0.000D+00 0.000D+00 0.000D+00
 Coeff-En:   0.100D+01
 Coeff:     -0.519D-03 0.678D-02 0.539D-01-0.703D-01-0.217D+00-0.910D-01
 Coeff:      0.132D+01
 Gap=     0.457 Goal=   None    Shift=    0.000
 RMSDP=5.66D-05 MaxDP=6.73D-04 DE=-4.38D-05 OVMax= 3.02D-03

 Cycle   8  Pass 1  IDiag  1:
 E= -326.504494323244     Delta-E=       -0.000008162318 Rises=F Damp=F
 DIIS: error= 6.98D-05 at cycle   8 NSaved=   8.
 NSaved= 8 IEnMin= 8 EnMin= -326.504494323244     IErMin= 8 ErrMin= 6.98D-05
 ErrMax= 6.98D-05 EMaxC= 1.00D-01 BMatC= 1.30D-07 BMatP= 1.16D-06
 IDIUse=1 WtCom= 1.00D+00 WtEn= 0.00D+00
 Coeff-Com:  0.290D-03-0.554D-02-0.352D-01 0.907D-01 0.128D+00-0.233D+00
 Coeff-Com: -0.455D+00 0.151D+01
 Coeff:      0.290D-03-0.554D-02-0.352D-01 0.907D-01 0.128D+00-0.233D+00
 Coeff:     -0.455D+00 0.151D+01
 Gap=     0.457 Goal=   None    Shift=    0.000
 RMSDP=1.61D-05 MaxDP=1.79D-04 DE=-8.16D-06 OVMax= 8.22D-04

 Cycle   9  Pass 1  IDiag  1:
 E= -326.504495059937     Delta-E=       -0.000000736693 Rises=F Damp=F
 DIIS: error= 1.15D-05 at cycle   9 NSaved=   9.
 NSaved= 9 IEnMin= 9 EnMin= -326.504495059937     IErMin= 9 ErrMin= 1.15D-05
 ErrMax= 1.15D-05 EMaxC= 1.00D-01 BMatC= 4.80D-09 BMatP= 1.30D-07
 IDIUse=1 WtCom= 1.00D+00 WtEn= 0.00D+00
 Coeff-Com: -0.481D-04 0.120D-02 0.670D-02-0.208D-01-0.237D-01 0.615D-01
 Coeff-Com:  0.845D-01-0.476D+00 0.137D+01
 Coeff:     -0.481D-04 0.120D-02 0.670D-02-0.208D-01-0.237D-01 0.615D-01
 Coeff:      0.845D-01-0.476D+00 0.137D+01
 Gap=     0.457 Goal=   None    Shift=    0.000
 RMSDP=3.85D-06 MaxDP=6.18D-05 DE=-7.37D-07 OVMax= 1.16D-04

 Cycle  10  Pass 1  IDiag  1:
 E= -326.504495084506     Delta-E=       -0.000000024569 Rises=F Damp=F
 DIIS: error= 5.05D-06 at cycle  10 NSaved=  10.
 NSaved=10 IEnMin=10 EnMin= -326.504495084506     IErMin=10 ErrMin= 5.05D-06
 ErrMax= 5.05D-06 EMaxC= 1.00D-01 BMatC= 6.56D-10 BMatP= 4.80D-09
 IDIUse=1 WtCom= 1.00D+00 WtEn= 0.00D+00
 Coeff-Com:  0.173D-04-0.516D-03-0.267D-02 0.850D-02 0.119D-01-0.315D-01
 Coeff-Com: -0.316D-01 0.236D+00-0.898D+00 0.171D+01
 Coeff:      0.173D-04-0.516D-03-0.267D-02 0.850D-02 0.119D-01-0.315D-01
 Coeff:     -0.316D-01 0.236D+00-0.898D+00 0.171D+01
 Gap=     0.457 Goal=   None    Shift=    0.000
 RMSDP=8.65D-07 MaxDP=9.15D-06 DE=-2.46D-08 OVMax= 4.46D-05

 Cycle  11  Pass 1  IDiag  1:
 E= -326.504495088489     Delta-E=       -0.000000003983 Rises=F Damp=F
 DIIS: error= 1.81D-06 at cycle  11 NSaved=  11.
 NSaved=11 IEnMin=11 EnMin= -326.504495088489     IErMin=11 ErrMin= 1.81D-06
 ErrMax= 1.81D-06 EMaxC= 1.00D-01 BMatC= 1.07D-10 BMatP= 6.56D-10
 IDIUse=1 WtCom= 1.00D+00 WtEn= 0.00D+00
 Coeff-Com: -0.442D-05 0.156D-03 0.764D-03-0.261D-02-0.339D-02 0.961D-02
 Coeff-Com:  0.879D-02-0.826D-01 0.383D+00-0.121D+01 0.190D+01
 Coeff:     -0.442D-05 0.156D-03 0.764D-03-0.261D-02-0.339D-02 0.961D-02
 Coeff:      0.879D-02-0.826D-01 0.383D+00-0.121D+01 0.190D+01
 Gap=     0.457 Goal=   None    Shift=    0.000
 RMSDP=5.88D-07 MaxDP=9.68D-06 DE=-3.98D-09 OVMax= 2.65D-05

 Cycle  12  Pass 1  IDiag  1:
 E= -326.504495089221     Delta-E=       -0.000000000732 Rises=F Damp=F
 DIIS: error= 2.52D-07 at cycle  12 NSaved=  12.
 NSaved=12 IEnMin=12 EnMin= -326.504495089221     IErMin=12 ErrMin= 2.52D-07
 ErrMax= 2.52D-07 EMaxC= 1.00D-01 BMatC= 6.57D-12 BMatP= 1.07D-10
 IDIUse=1 WtCom= 1.00D+00 WtEn= 0.00D+00
 Coeff-Com: -0.255D-05 0.827D-04 0.420D-03-0.139D-02-0.178D-02 0.497D-02
 Coeff-Com:  0.504D-02-0.409D-01 0.174D+00-0.469D+00 0.580D+00 0.749D+00
 Coeff:     -0.255D-05 0.827D-04 0.420D-03-0.139D-02-0.178D-02 0.497D-02
 Coeff:      0.504D-02-0.409D-01 0.174D+00-0.469D+00 0.580D+00 0.749D+00
 Gap=     0.457 Goal=   None    Shift=    0.000
 RMSDP=4.63D-08 MaxDP=5.60D-07 DE=-7.32D-10 OVMax= 2.31D-06

 Cycle  13  Pass 1  IDiag  1:
 E= -326.504495089231     Delta-E=       -0.000000000010 Rises=F Damp=F
 DIIS: error= 9.87D-08 at cycle  13 NSaved=  13.
 NSaved=13 IEnMin=13 EnMin= -326.504495089231     IErMin=13 ErrMin= 9.87D-08
 ErrMax= 9.87D-08 EMaxC= 1.00D-01 BMatC= 9.87D-13 BMatP= 6.57D-12
 IDIUse=1 WtCom= 1.00D+00 WtEn= 0.00D+00
 Coeff-Com: -0.941D-07-0.530D-06 0.746D-05-0.155D-05 0.371D-04-0.976D-04
 Coeff-Com:  0.200D-03 0.170D-02-0.156D-01 0.877D-01-0.198D+00 0.234D+00
 Coeff-Com:  0.889D+00
 Coeff:     -0.941D-07-0.530D-06 0.746D-05-0.155D-05 0.371D-04-0.976D-04
 Coeff:      0.200D-03 0.170D-02-0.156D-01 0.877D-01-0.198D+00 0.234D+00
 Coeff:      0.889D+00
 Gap=     0.457 Goal=   None    Shift=    0.000
 RMSDP=3.67D-08 MaxDP=4.67D-07 DE=-1.02D-11 OVMax= 9.01D-07

 Cycle  14  Pass 1  IDiag  1:
 E= -326.504495089230     Delta-E=        0.000000000001 Rises=F Damp=F
 DIIS: error= 1.10D-08 at cycle  14 NSaved=  14.
 NSaved=14 IEnMin=13 EnMin= -326.504495089231     IErMin=14 ErrMin= 1.10D-08
 ErrMax= 1.10D-08 EMaxC= 1.00D-01 BMatC= 1.16D-14 BMatP= 9.87D-13
 IDIUse=1 WtCom= 1.00D+00 WtEn= 0.00D+00
 Coeff-Com:  0.732D-07-0.220D-05-0.109D-04 0.348D-04 0.393D-04-0.113D-03
 Coeff-Com: -0.190D-03 0.935D-03-0.292D-02 0.257D-03 0.158D-01-0.699D-01
 Coeff-Com: -0.148D+00 0.120D+01
 Coeff:      0.732D-07-0.220D-05-0.109D-04 0.348D-04 0.393D-04-0.113D-03
 Coeff:     -0.190D-03 0.935D-03-0.292D-02 0.257D-03 0.158D-01-0.699D-01
 Coeff:     -0.148D+00 0.120D+01
 Gap=     0.457 Goal=   None    Shift=    0.000
 RMSDP=1.39D-08 MaxDP=2.05D-07 DE= 1.36D-12 OVMax= 5.92D-08

 Cycle  15  Pass 1  IDiag  1:
 E= -326.504495089233     Delta-E=       -0.000000000003 Rises=F Damp=F
 DIIS: error= 2.75D-09 at cycle  15 NSaved=  15.
 NSaved=15 IEnMin=15 EnMin= -326.504495089233     IErMin=15 ErrMin= 2.75D-09
 ErrMax= 2.75D-09 EMaxC= 1.00D-01 BMatC= 3.09D-16 BMatP= 1.16D-14
 IDIUse=1 WtCom= 1.00D+00 WtEn= 0.00D+00
 Coeff-Com: -0.151D-07 0.521D-06 0.259D-05-0.838D-05-0.110D-04 0.303D-04
 Coeff-Com:  0.363D-04-0.268D-03 0.116D-02-0.295D-02 0.340D-02 0.491D-02
 Coeff-Com: -0.117D-02-0.195D+00 0.119D+01
 Coeff:     -0.151D-07 0.521D-06 0.259D-05-0.838D-05-0.110D-04 0.303D-04
 Coeff:      0.363D-04-0.268D-03 0.116D-02-0.295D-02 0.340D-02 0.491D-02
 Coeff:     -0.117D-02-0.195D+00 0.119D+01
 Gap=     0.457 Goal=   None    Shift=    0.000
 RMSDP=9.58D-10 MaxDP=1.53D-08 DE=-2.84D-12 OVMax= 1.32D-08

 SCF Done:  E(RHF) =  -326.504495089     A.U. after   15 cycles
             Convg  =    0.9585D-09             -V/T =  2.0016
 KE= 3.259812626722D+02 PE=-1.198418970485D+03 EE= 3.288062941139D+02
 Leave Link  502 at Fri Dec  3 17:06:55 2021, MaxMem=  498073600 cpu:      24.8
 (Enter /apps/software//g09/l801.exe)
 ExpMin= 6.39D-02 ExpMax= 6.29D+03 ExpMxC= 9.49D+02 IAcc=3 IRadAn=         5 AccDes= 0.00D+00
 HarFok:  IExCor=  205 AccDes= 0.00D+00 IRadAn=         5 IDoV=-2
 ScaDFX=  1.000000  1.000000  1.000000  1.000000
 Largest valence mixing into a core orbital is  1.30D-04
 Largest core mixing into a valence orbital is  5.74D-05
 Range of M.O.s used for correlation:     7   132
 NBasis=   132 NAE=    21 NBE=    21 NFC=     6 NFV=     0
 NROrb=    126 NOA=    15 NOB=    15 NVA=   111 NVB=   111

 **** Warning!!: The largest alpha MO coefficient is  0.53032878D+02

 Leave Link  801 at Fri Dec  3 17:06:55 2021, MaxMem=  498073600 cpu:       0.7
 (Enter /apps/software//g09/l906.exe)
 Frozen-core derivative calculation, NFC=   6 NFV=   0.
 FulOut=F Deriv=T AODrv=F NAtomX=     6
   MMem=         366  MDisk=          15 MDiskD=          15
  W3Min=      382536 MinDsk=      614765 NBas6D=         138
 NBas2D=        9825    NTT=        9591    LW2=     2040000
    MDV=   497886545 MDiskM=       49908 NBas2p=        9822
 Fully in-core method, ICMem=   103332621.
 IMap=   1   2   3   4   5   6   7   8   9  10  11  12  13  14  15  16  17  18  19  20
 IMap=  21
 JobTyp=1 Pass  1 fully in-core, NPsUse=  6.
 Compute canonical integrals, IntTyp=   4.
 Symmetry not used in FoFDir.
 MinBra= 0 MaxBra= 2 Meth= 1.
 IRaf=       0 NMat=   1 IRICut=       1 DoRegI=T DoRafI=F ISym2E= 0 JSym2E=0.
 Spin components of T(2) and E(2):
     alpha-alpha T2 =       0.5351803808D-01 E2=     -0.1488653656D+00
     alpha-beta  T2 =       0.2588905375D+00 E2=     -0.7489728733D+00
     beta-beta   T2 =       0.5351803808D-01 E2=     -0.1488653656D+00
 The integrals were generated   1 times.
 ANorm=    0.1168728631D+01
 E2 =    -0.1046703605D+01 EUMP2 =    -0.32755119869382D+03
 Leave Link  906 at Fri Dec  3 17:07:07 2021, MaxMem=  498073600 cpu:      72.1
 (Enter /apps/software//g09/l1002.exe)
 Minotr:  Closed shell wavefunction.
          Computing MP2/KS-MP2 derivatives.
          Using Z-Vector for PSCF gradient.
          Skipping F1 and S1 gradient terms here.
          Frozen-core window.
          Direct CPHF calculation.
          Differentiating once with respect to electric field.
                with respect to dipole field.
          Electric field/nuclear overlap derivatives assumed to be zero.
          Requested convergence is 1.0D-10 RMS, and 1.0D-09 maximum.
          NewPWx=F KeepS1=T KeepF1=T KeepIn=T MapXYZ=F SortEE=F KeepMc=T.
          MDV=     498073548 using IRadAn=       0.
          Keep R1 ints in memory in canonical form, NReq=46819329.
 Symmetry not used in FoFDir.
 MinBra= 0 MaxBra= 2 Meth= 1.
 IRaf=       0 NMat=   1 IRICut=       1 DoRegI=T DoRafI=F ISym2E= 0 JSym2E=0.
          Solving linear equations separately, MaxMat=       0.
          There are     1 degrees of freedom in the 1st order CPHF.  IDoFFX=0.
 LinEq1:  Iter=  0 NonCon=     1 RMS=7.47D-03 Max=1.47D-01
 AX will form     1 AO Fock derivatives at one time.
 LinEq1:  Iter=  1 NonCon=     1 RMS=1.78D-03 Max=3.74D-02
 LinEq1:  Iter=  2 NonCon=     1 RMS=6.70D-04 Max=1.51D-02
 LinEq1:  Iter=  3 NonCon=     1 RMS=1.81D-04 Max=2.87D-03
 LinEq1:  Iter=  4 NonCon=     1 RMS=9.34D-05 Max=1.22D-03
 LinEq1:  Iter=  5 NonCon=     1 RMS=3.13D-05 Max=4.72D-04
 LinEq1:  Iter=  6 NonCon=     1 RMS=7.40D-06 Max=1.51D-04
 LinEq1:  Iter=  7 NonCon=     1 RMS=1.59D-06 Max=3.72D-05
 LinEq1:  Iter=  8 NonCon=     1 RMS=3.26D-07 Max=6.49D-06
 LinEq1:  Iter=  9 NonCon=     1 RMS=4.03D-08 Max=4.34D-07
 LinEq1:  Iter= 10 NonCon=     1 RMS=6.67D-09 Max=8.63D-08
 LinEq1:  Iter= 11 NonCon=     1 RMS=2.08D-09 Max=4.75D-08
 LinEq1:  Iter= 12 NonCon=     1 RMS=8.92D-10 Max=8.74D-09
 LinEq1:  Iter= 13 NonCon=     1 RMS=1.09D-10 Max=1.20D-09
 LinEq1:  Iter= 14 NonCon=     0 RMS=1.67D-11 Max=1.93D-10
 Linear equations converged to 1.000D-10 1.000D-09 after    14 iterations.
 End of Minotr Frequency-dependent properties file   721 does not exist.
 End of Minotr Frequency-dependent properties file   722 does not exist.
 Leave Link 1002 at Fri Dec  3 17:07:11 2021, MaxMem=  498073600 cpu:      22.7
 (Enter /apps/software//g09/l601.exe)
 Copying SCF densities to generalized density rwf, IOpCl= 0 IROHF=0.

 **********************************************************************

            Population analysis using the MP2 density.

 **********************************************************************

 Orbital symmetries:
       Occupied  (A) (A) (A) (A) (A) (A) (A) (A) (A) (A) (A) (A)
                 (A) (A) (A) (A) (A) (A) (A) (A) (A)
       Virtual   (A) (A) (A) (A) (A) (A) (A) (A) (A) (A) (A) (A)
                 (A) (A) (A) (A) (A) (A) (A) (A) (A) (A) (A) (A)
                 (A) (A) (A) (A) (A) (A) (A) (A) (A) (A) (A) (A)
                 (A) (A) (A) (A) (A) (A) (A) (A) (A) (A) (A) (A)
                 (A) (A) (A) (A) (A) (A) (A) (A) (A) (A) (A) (A)
                 (A) (A) (A) (A) (A) (A) (A) (A) (A) (A) (A) (A)
                 (A) (A) (A) (A) (A) (A) (A) (A) (A) (A) (A) (A)
                 (A) (A) (A) (A) (A) (A) (A) (A) (A) (A) (A) (A)
                 (A) (A) (A) (A) (A) (A) (A) (A) (A) (A) (A) (A)
                 (A) (A) (A)
 The electronic state is 1-A.
 Alpha  occ. eigenvalues --  -15.74596 -15.74587 -15.74518 -15.74495 -15.74309
 Alpha  occ. eigenvalues --  -15.74302  -1.59187  -1.41143  -1.40618  -1.11731
 Alpha  occ. eigenvalues --   -1.09843  -0.88371  -0.77013  -0.73792  -0.66675
 Alpha  occ. eigenvalues --   -0.61583  -0.60563  -0.54436  -0.51452  -0.49645
 Alpha  occ. eigenvalues --   -0.48398
 Alpha virt. eigenvalues --   -0.02695  -0.00064   0.12263   0.13833   0.13888
 Alpha virt. eigenvalues --    0.14504   0.16021   0.16792   0.17459   0.17894
 Alpha virt. eigenvalues --    0.19074   0.19517   0.22890   0.24568   0.25635
 Alpha virt. eigenvalues --    0.26112   0.28689   0.28763   0.29533   0.30238
 Alpha virt. eigenvalues --    0.31158   0.33688   0.34150   0.36803   0.37783
 Alpha virt. eigenvalues --    0.38637   0.39565   0.40761   0.41750   0.46902
 Alpha virt. eigenvalues --    0.53775   0.57889   0.72754   0.84284   0.86362
 Alpha virt. eigenvalues --    0.86820   0.92531   0.92760   0.95362   0.95802
 Alpha virt. eigenvalues --    0.96168   0.96636   0.97627   0.98304   0.99510
 Alpha virt. eigenvalues --    1.02598   1.04035   1.07129   1.08110   1.09174
 Alpha virt. eigenvalues --    1.14477   1.28519   1.36611   1.38703   1.42159
 Alpha virt. eigenvalues --    1.47400   1.51756   1.65611   1.79740   1.82928
 Alpha virt. eigenvalues --    1.84830   1.91560   1.95349   1.98599   2.09088
 Alpha virt. eigenvalues --    2.13921   2.26810   2.30404   2.46516   2.51247
 Alpha virt. eigenvalues --    2.52859   2.55338   2.72000   2.72286   2.85497
 Alpha virt. eigenvalues --    2.91114   2.92912   2.96927   2.97091   2.99595
 Alpha virt. eigenvalues --    3.05442   3.13038   3.26686   3.31237   3.36550
 Alpha virt. eigenvalues --    3.56422   3.81098   4.00188   4.11827   4.18490
 Alpha virt. eigenvalues --    4.21492   4.21595   4.23467   4.25344   4.29945
 Alpha virt. eigenvalues --    4.30797   4.38813   4.38905   4.44753   4.95573
 Alpha virt. eigenvalues --    4.99406   5.05363   5.54650   5.60216   6.39146
 Alpha virt. eigenvalues --   36.46163  36.78310  36.80237  36.80877  36.81805
 Alpha virt. eigenvalues --   36.84842
          Condensed to atoms (all electrons):
              1          2          3          4          5          6
     1  N    7.097779  -0.199227  -0.024276   0.139806  -0.162635   0.103628
     2  N   -0.199227   7.097779   0.103629  -0.162635   0.139805  -0.024276
     3  N   -0.024276   0.103629   6.889865   0.103613  -0.024271   0.041289
     4  N    0.139806  -0.162635   0.103613   7.097801  -0.199238  -0.024272
     5  N   -0.162635   0.139805  -0.024271  -0.199238   7.097801   0.103614
     6  N    0.103628  -0.024276   0.041289  -0.024272   0.103614   6.889865
 Mulliken atomic charges:
              1
     1  N    0.044926
     2  N    0.044924
     3  N   -0.089849
     4  N    0.044925
     5  N    0.044924
     6  N   -0.089850
 Sum of Mulliken atomic charges =   0.00000
 Mulliken charges with hydrogens summed into heavy atoms:
              1
     1  N    0.044926
     2  N    0.044924
     3  N   -0.089849
     4  N    0.044925
     5  N    0.044924
     6  N   -0.089850
 Sum of Mulliken charges with hydrogens summed into heavy atoms =   0.00000
 Electronic spatial extent (au):  <R**2>=            334.7984
 Charge=              0.0000 electrons
 Dipole moment (field-independent basis, Debye):
    X=              0.0000    Y=              0.0000    Z=              0.0000  Tot=              0.0000
 Quadrupole moment (field-independent basis, Debye-Ang):
   XX=            -38.8166   YY=            -38.4490   ZZ=            -31.3521
   XY=              0.0000   XZ=              0.0000   YZ=             -0.0005
 Traceless Quadrupole moment (field-independent basis, Debye-Ang):
   XX=             -2.6107   YY=             -2.2431   ZZ=              4.8538
   XY=              0.0000   XZ=              0.0000   YZ=             -0.0005
 Octapole moment (field-independent basis, Debye-Ang**2):
  XXX=              0.0000  YYY=              0.0000  ZZZ=              0.0000  XYY=              0.0003
  XXY=              0.0000  XXZ=             -0.0001  XZZ=             -0.0003  YZZ=              0.0000
  YYZ=              0.0001  XYZ=             -2.3200
 Hexadecapole moment (field-independent basis, Debye-Ang**3):
 XXXX=           -226.9772 YYYY=           -218.0727 ZZZZ=            -31.7172 XXXY=              0.0000
 XXXZ=             -0.0001 YYYX=              0.0000 YYYZ=             -0.0076 ZZZX=             -0.0001
 ZZZY=             -0.0059 XXYY=            -74.1735 XXZZ=            -40.4864 YYZZ=            -37.6377
 XXYZ=             -0.0024 YYXZ=              0.0000 ZZXY=              0.0000
 N-N= 2.171269186099D+02 E-N=-1.200024763829D+03  KE= 3.276656771693D+02
 No NMR shielding tensors so no spin-rotation constants.
 Leave Link  601 at Fri Dec  3 17:07:11 2021, MaxMem=  498073600 cpu:       1.5
 (Enter /apps/software//g09/l9999.exe)
 1\1\GINC-DLT06\SP\RMP2-FC\6-311++G(d,p)\N6\ITAMAR\03-Dec-2021\0\\#P MP
 2/6-311++G** DENSITY=MP2\\N6\\0,1\N,0,1.13232,0.637643,0.182396\N,0,1.
 132315,-0.637649,-0.182399\N,0,-0.000002,-1.279604,0.000093\N,0,-1.132
 322,-0.637612,0.182493\N,0,-1.132318,0.637618,-0.18249\N,0,0.000006,1.
 279604,-0.000094\\Version=EM64L-G09RevA.02\State=1-A\HF=-326.5044951\M
 P2=-327.5511987\RMSD=9.585e-10\Dipole=0.000005,0.,0.0000008\Quadrupole
 =-1.9410043,-1.6676781,3.6086824,0.000005,0.0000074,0.0003708\PG=C01 [
 X(N6)]\\@


 CONTRAIWISE...CONTINUED TWEEDLEDEE, IF IT WAS SO, IT MIGHT BE,
 AND IF IT WERE SO, IT WOULD BE.....
 BUT AS IT ISN'T, IT AIN'T....
 THAT'S LOGIC.....
 ALICE THROUGH THE LOOKING GLASS
 Job cpu time:  0 days  0 hours  2 minutes  7.0 seconds.
 File lengths (MBytes):  RWF=      9 Int=      0 D2E=      0 Chk=      3 Scr=      1
 Normal termination of Gaussian 09 at Fri Dec  3 17:07:11 2021.
