 Entering Gaussian System, Link 0=g09
 Initial command:
 /apps/software//g09/l1.exe /scratch/itamar/2491.cluster.abaxnet/Gau-14025.inp -scrdir=/scratch/itamar/2491.cluster.abaxnet/
 Entering Link 1 = /apps/software//g09/l1.exe PID=     14026.
  
 Copyright (c) 1988,1990,1992,1993,1995,1998,2003,2009, Gaussian, Inc.
                  All Rights Reserved.
  
 This is part of the Gaussian(R) 09 program.  It is based on
 the Gaussian(R) 03 system (copyright 2003, Gaussian, Inc.),
 the Gaussian(R) 98 system (copyright 1998, Gaussian, Inc.),
 the Gaussian(R) 94 system (copyright 1995, Gaussian, Inc.),
 the Gaussian 92(TM) system (copyright 1992, Gaussian, Inc.),
 the Gaussian 90(TM) system (copyright 1990, Gaussian, Inc.),
 the Gaussian 88(TM) system (copyright 1988, Gaussian, Inc.),
 the Gaussian 86(TM) system (copyright 1986, Carnegie Mellon
 University), and the Gaussian 82(TM) system (copyright 1983,
 Carnegie Mellon University). Gaussian is a federally registered
 trademark of Gaussian, Inc.
  
 This software contains proprietary and confidential information,
 including trade secrets, belonging to Gaussian, Inc.
  
 This software is provided under written license and may be
 used, copied, transmitted, or stored only in accord with that
 written license.
  
 The following legend is applicable only to US Government
 contracts under FAR:
  
                    RESTRICTED RIGHTS LEGEND
  
 Use, reproduction and disclosure by the US Government is
 subject to restrictions as set forth in subparagraphs (a)
 and (c) of the Commercial Computer Software - Restricted
 Rights clause in FAR 52.227-19.
  
 Gaussian, Inc.
 340 Quinnipiac St., Bldg. 40, Wallingford CT 06492
  
  
 ---------------------------------------------------------------
 Warning -- This program may not be used in any manner that
 competes with the business of Gaussian, Inc. or will provide
 assistance to any competitor of Gaussian, Inc.  The licensee
 of this program is prohibited from giving any competitor of
 Gaussian, Inc. access to this program.  By using this program,
 the user acknowledges that Gaussian, Inc. is engaged in the
 business of creating and licensing software in the field of
 computational chemistry and represents and warrants to the
 licensee that it is not a competitor of Gaussian, Inc. and that
 it will not use this program in any manner prohibited above.
 ---------------------------------------------------------------
  

 Cite this work as:
 Gaussian 09, Revision A.02,
 M. J. Frisch, G. W. Trucks, H. B. Schlegel, G. E. Scuseria, 
 M. A. Robb, J. R. Cheeseman, G. Scalmani, V. Barone, B. Mennucci, 
 G. A. Petersson, H. Nakatsuji, M. Caricato, X. Li, H. P. Hratchian, 
 A. F. Izmaylov, J. Bloino, G. Zheng, J. L. Sonnenberg, M. Hada, 
 M. Ehara, K. Toyota, R. Fukuda, J. Hasegawa, M. Ishida, T. Nakajima, 
 Y. Honda, O. Kitao, H. Nakai, T. Vreven, J. A. Montgomery, Jr., 
 J. E. Peralta, F. Ogliaro, M. Bearpark, J. J. Heyd, E. Brothers, 
 K. N. Kudin, V. N. Staroverov, R. Kobayashi, J. Normand, 
 K. Raghavachari, A. Rendell, J. C. Burant, S. S. Iyengar, J. Tomasi, 
 M. Cossi, N. Rega, J. M. Millam, M. Klene, J. E. Knox, J. B. Cross, 
 V. Bakken, C. Adamo, J. Jaramillo, R. Gomperts, R. E. Stratmann, 
 O. Yazyev, A. J. Austin, R. Cammi, C. Pomelli, J. W. Ochterski, 
 R. L. Martin, K. Morokuma, V. G. Zakrzewski, G. A. Voth, 
 P. Salvador, J. J. Dannenberg, S. Dapprich, A. D. Daniels, 
 O. Farkas, J. B. Foresman, J. V. Ortiz, J. Cioslowski, 
 and D. J. Fox, Gaussian, Inc., Wallingford CT, 2009.
 
 ******************************************
 Gaussian 09:  EM64L-G09RevA.02 11-Jun-2009
                 3-Dec-2021 
 ******************************************
 %Mem=3800MB
 %NProcShared=6
 Will use up to    6 processors via shared memory.
 %chk=/home/itamar/Aromaticity-test-set/T14-old-T15-Acetylene-Trimerization/at-ts
 .chk
 -----------------------------
 #P MP2/6-311++G** DENSITY=MP2
 -----------------------------
 1/30=1,38=1/1;
 2/12=2,17=6,18=5,40=1/2;
 3/5=4,6=6,7=1111,11=9,16=1,25=1,30=1,71=1/1,2,3;
 4//1;
 5/5=2,38=5/2;
 8/6=4,10=2/1;
 9/15=1,16=-3/6;
 10/5=1,13=10/2;
 6/7=2,8=2,9=2,10=2,22=2/1;
 99/5=1,9=1/99;
 Leave Link    1 at Fri Dec  3 17:54:43 2021, MaxMem=  498073600 cpu:       0.3
 (Enter /apps/software//g09/l101.exe)
 -----------------------
 Acetylene trimerization
 -----------------------
 Symbolic Z-matrix:
 Charge =  0 Multiplicity = 1
 6                    -1.15175   1.36656   0. 
 6                     0.        1.7871    0. 
 6                     1.75949   0.31423   0. 
 6                    -1.54791  -0.89351   0. 
 6                     1.54835  -0.89352   0. 
 6                    -0.60811  -1.68095   0. 
 1                     0.72977   2.56116   0. 
 1                    -2.20861   1.48806   0. 
 1                    -2.58305  -0.64821   0. 
 1                     2.39281   1.16897   0. 
 1                    -0.18426  -2.65665   0. 
 1                     1.85295  -1.91276   0. 
 
 NAtoms=     12 NQM=     12 NQMF=      0 NMic=      0 NMicF=      0 NTot=     12.
                    Isotopes and Nuclear Properties:
 (Nuclear quadrupole moments (NQMom) in fm**2, nuclear magnetic moments (NMagM)
  in nuclear magnetons)

  Atom         1           2           3           4           5           6           7           8           9          10
 IAtWgt=          12          12          12          12          12          12           1           1           1           1
 AtmWgt=  12.0000000  12.0000000  12.0000000  12.0000000  12.0000000  12.0000000   1.0078250   1.0078250   1.0078250   1.0078250
 NucSpn=           0           0           0           0           0           0           1           1           1           1
 AtZEff=   0.0000000   0.0000000   0.0000000   0.0000000   0.0000000   0.0000000   0.0000000   0.0000000   0.0000000   0.0000000
 NQMom=    0.0000000   0.0000000   0.0000000   0.0000000   0.0000000   0.0000000   0.0000000   0.0000000   0.0000000   0.0000000
 NMagM=    0.0000000   0.0000000   0.0000000   0.0000000   0.0000000   0.0000000   2.7928460   2.7928460   2.7928460   2.7928460

  Atom        11          12
 IAtWgt=           1           1
 AtmWgt=   1.0078250   1.0078250
 NucSpn=           1           1
 AtZEff=   0.0000000   0.0000000
 NQMom=    0.0000000   0.0000000
 NMagM=    2.7928460   2.7928460
 Leave Link  101 at Fri Dec  3 17:54:43 2021, MaxMem=  498073600 cpu:       0.3
 (Enter /apps/software//g09/l202.exe)
                          Input orientation:                          
 ---------------------------------------------------------------------
 Center     Atomic      Atomic             Coordinates (Angstroms)
 Number     Number       Type             X           Y           Z
 ---------------------------------------------------------------------
      1          6           0       -1.151754    1.366558    0.000000
      2          6           0        0.000000    1.787096    0.000000
      3          6           0        1.759490    0.314231    0.000000
      4          6           0       -1.547911   -0.893513    0.000000
      5          6           0        1.548345   -0.893519    0.000000
      6          6           0       -0.608105   -1.680949    0.000000
      7          1           0        0.729765    2.561162    0.000000
      8          1           0       -2.208608    1.488055    0.000000
      9          1           0       -2.583048   -0.648206    0.000000
     10          1           0        2.392812    1.168973    0.000000
     11          1           0       -0.184259   -2.656652    0.000000
     12          1           0        1.852950   -1.912756    0.000000
 ---------------------------------------------------------------------
                    Distance matrix (angstroms):
                    1          2          3          4          5
     1  C    0.000000
     2  C    1.226128   0.000000
     3  C    3.095599   2.294588   0.000000
     4  C    2.294529   3.095431   3.521015   0.000000
     5  C    3.521148   3.095653   1.226068   3.096256   0.000000
     6  C    3.095618   3.520956   3.096167   1.226088   2.295718
     7  H    2.228720   1.063830   2.471646   4.137945   3.550337
     8  H    1.063815   2.228761   4.138075   2.471515   4.448212
     9  H    2.471412   3.550047   4.447912   1.063806   4.138670
    10  H    3.550069   2.471361   1.063805   4.447825   2.228676
    11  H    4.137906   4.447566   3.550254   2.228947   2.471954
    12  H    4.447712   4.137914   2.228947   3.550312   1.063780
                    6          7          8          9         10
     6  C    0.000000
     7  H    4.448078   0.000000
     8  H    3.550239   3.128193   0.000000
     9  H    2.228667   4.612458   2.168828   0.000000
    10  H    4.138545   2.168851   4.612470   5.297294   0.000000
    11  H    1.063787   5.297266   4.612655   3.128585   4.612668
    12  H    2.471948   4.612753   5.297336   4.612718   3.128659
                   11         12
    11  H    0.000000
    12  H    2.168779   0.000000
 Stoichiometry    C6H6
 Framework group  CS[SG(C6H6)]
 Deg. of freedom    21
 Full point group                 CS      NOp   2
 Largest Abelian subgroup         CS      NOp   2
 Largest concise Abelian subgroup C1      NOp   1
                         Standard orientation:                         
 ---------------------------------------------------------------------
 Center     Atomic      Atomic             Coordinates (Angstroms)
 Number     Number       Type             X           Y           Z
 ---------------------------------------------------------------------
      1          6           0       -1.151754    1.366558    0.000000
      2          6           0        0.000000    1.787096    0.000000
      3          6           0        1.759490    0.314231    0.000000
      4          6           0       -1.547911   -0.893513    0.000000
      5          6           0        1.548345   -0.893519    0.000000
      6          6           0       -0.608105   -1.680949    0.000000
      7          1           0        0.729765    2.561162    0.000000
      8          1           0       -2.208608    1.488055    0.000000
      9          1           0       -2.583048   -0.648206    0.000000
     10          1           0        2.392812    1.168973    0.000000
     11          1           0       -0.184259   -2.656652    0.000000
     12          1           0        1.852950   -1.912756    0.000000
 ---------------------------------------------------------------------
 Rotational constants (GHZ):      3.7043387      3.7032198      1.8518896
 Leave Link  202 at Fri Dec  3 17:54:43 2021, MaxMem=  498073600 cpu:       0.1
 (Enter /apps/software//g09/l301.exe)
 Standard basis: 6-311++G(d,p) (5D, 7F)
 Ernie: Thresh=  0.10000D-02 Tol=  0.10000D-05 Strict=F.
 There are   132 symmetry adapted basis functions of A'  symmetry.
 There are    42 symmetry adapted basis functions of A"  symmetry.
 Integral buffers will be    131072 words long.
 Raffenetti 1 integral format.
 Two-electron integral symmetry is turned on.
   174 basis functions,   270 primitive gaussians,   180 cartesian basis functions
    21 alpha electrons       21 beta electrons
       nuclear repulsion energy       175.3114388694 Hartrees.
 IExCor=    0 DFT=F Ex=HF Corr=None ExCW=0 ScaHFX=  1.000000
 ScaDFX=  1.000000  1.000000  1.000000  1.000000 ScalE2=  1.000000  1.000000
 IRadAn=      0 IRanWt=     -1 IRanGd=            0 ICorTp=0
 NAtoms=   12 NActive=   12 NUniq=   12 SFac= 7.50D-01 NAtFMM=   80 NAOKFM=F Big=F
 Leave Link  301 at Fri Dec  3 17:54:43 2021, MaxMem=  498073600 cpu:       0.2
 (Enter /apps/software//g09/l302.exe)
 NPDir=0 NMtPBC=     1 NCelOv=     1 NCel=       1 NClECP=     1 NCelD=      1
         NCelK=      1 NCelE2=     1 NClLst=     1 CellRange=     0.0.
 One-electron integrals computed using PRISM.
 NBasis=   174 RedAO= T  NBF=   132    42
 NBsUse=   174 1.00D-06 NBFU=   132    42
 Leave Link  302 at Fri Dec  3 17:54:44 2021, MaxMem=  498073600 cpu:       1.3
 (Enter /apps/software//g09/l303.exe)
 DipDrv:  MaxL=1.
 Leave Link  303 at Fri Dec  3 17:54:44 2021, MaxMem=  498073600 cpu:       0.2
 (Enter /apps/software//g09/l401.exe)
 Harris functional with IExCor=  205 diagonalized for initial guess.
 ExpMin= 3.60D-02 ExpMax= 4.56D+03 ExpMxC= 6.82D+02 IAcc=3 IRadAn=         0 AccDes= 0.00D+00
 HarFok:  IExCor=  205 AccDes= 0.00D+00 IRadAn=         0 IDoV= 1
 ScaDFX=  1.000000  1.000000  1.000000  1.000000
 FoFCou: FMM=F IPFlag=           0 FMFlag=      100000 FMFlg1=           0
         NFxFlg=           0 DoJE=T BraDBF=F KetDBF=T FulRan=T
         Omega=  0.000000  0.000000  1.000000  0.000000  0.000000 ICntrl=     500 IOpCl=  0
         NMat0=    1 NMatS0=    1 NMatT0=    0 NMatD0=    1 NMtDS0=    0 NMtDT0=    0
         I1Cent=           4 NGrid=           0.
 Petite list used in FoFCou.
 Harris En= -230.864550164811    
 Initial guess orbital symmetries:
       Occupied  (A') (A') (A') (A') (A') (A') (A') (A') (A') (A')
                 (A') (A') (A') (A') (A') (A') (A") (A") (A") (A')
                 (A')
       Virtual   (A') (A') (A") (A") (A") (A') (A') (A') (A') (A')
                 (A') (A') (A") (A') (A') (A') (A") (A") (A') (A')
                 (A') (A') (A") (A") (A') (A') (A') (A') (A') (A")
                 (A') (A') (A') (A') (A') (A') (A') (A') (A') (A')
                 (A') (A') (A') (A') (A') (A") (A') (A') (A') (A')
                 (A") (A") (A') (A') (A') (A") (A") (A") (A') (A')
                 (A') (A') (A') (A') (A') (A') (A') (A') (A') (A')
                 (A') (A') (A') (A') (A") (A") (A") (A') (A") (A")
                 (A") (A') (A') (A') (A') (A') (A") (A") (A') (A")
                 (A') (A') (A') (A') (A') (A') (A") (A") (A") (A")
                 (A") (A") (A') (A') (A') (A') (A') (A') (A') (A')
                 (A') (A") (A") (A') (A') (A") (A') (A') (A') (A")
                 (A") (A") (A') (A') (A') (A') (A') (A') (A') (A")
                 (A") (A') (A") (A') (A') (A') (A') (A') (A') (A')
                 (A') (A') (A') (A') (A') (A') (A') (A') (A') (A')
                 (A') (A') (A')
 The electronic state of the initial guess is 1-A'.
 Leave Link  401 at Fri Dec  3 17:54:44 2021, MaxMem=  498073600 cpu:       3.0
 (Enter /apps/software//g09/l502.exe)
 Closed shell SCF:
 Requested convergence on RMS density matrix=1.00D-08 within 128 cycles.
 Requested convergence on MAX density matrix=1.00D-06.
 Requested convergence on             energy=1.00D-06.
 No special actions if energy rises.
 Using DIIS extrapolation, IDIIS=  1040.
 Integral symmetry usage will be decided dynamically.
 Keep R1 ints in memory in canonical form, NReq=135772825.
 IEnd=      117836 IEndB=      117836 NGot=   498073600 MDV=   365314762
 LenX=   365314762 LenY=   365281921
 Symmetry not used in FoFDir.
 MinBra= 0 MaxBra= 2 Meth= 1.
 IRaf=       0 NMat=   1 IRICut=       1 DoRegI=T DoRafI=F ISym2E= 0 JSym2E=0.

 Cycle   1  Pass 1  IDiag  1:
 E= -230.058175150806    
 DIIS: error= 6.44D-02 at cycle   1 NSaved=   1.
 NSaved= 1 IEnMin= 1 EnMin= -230.058175150806     IErMin= 1 ErrMin= 6.44D-02
 ErrMax= 6.44D-02 EMaxC= 1.00D-01 BMatC= 5.44D-01 BMatP= 5.44D-01
 IDIUse=3 WtCom= 3.56D-01 WtEn= 6.44D-01
 Coeff-Com:  0.100D+01
 Coeff-En:   0.100D+01
 Coeff:      0.100D+01
 Gap=     0.456 Goal=   None    Shift=    0.000
 GapD=    0.456 DampG=2.000 DampE=0.500 DampFc=1.0000 IDamp=-1.
 RMSDP=9.29D-03 MaxDP=2.58D-01              OVMax= 1.40D-01

 Cycle   2  Pass 1  IDiag  1:
 E= -230.354713777040     Delta-E=       -0.296538626235 Rises=F Damp=F
 DIIS: error= 1.88D-02 at cycle   2 NSaved=   2.
 NSaved= 2 IEnMin= 2 EnMin= -230.354713777040     IErMin= 2 ErrMin= 1.88D-02
 ErrMax= 1.88D-02 EMaxC= 1.00D-01 BMatC= 4.10D-02 BMatP= 5.44D-01
 IDIUse=3 WtCom= 8.12D-01 WtEn= 1.88D-01
 Coeff-Com:  0.147D+00 0.853D+00
 Coeff-En:   0.000D+00 0.100D+01
 Coeff:      0.119D+00 0.881D+00
 Gap=     0.410 Goal=   None    Shift=    0.000
 RMSDP=1.12D-02 MaxDP=3.51D-01 DE=-2.97D-01 OVMax= 5.05D-02

 Cycle   3  Pass 1  IDiag  1:
 E= -230.391347881704     Delta-E=       -0.036634104663 Rises=F Damp=F
 DIIS: error= 4.78D-03 at cycle   3 NSaved=   3.
 NSaved= 3 IEnMin= 3 EnMin= -230.391347881704     IErMin= 3 ErrMin= 4.78D-03
 ErrMax= 4.78D-03 EMaxC= 1.00D-01 BMatC= 2.24D-03 BMatP= 4.10D-02
 IDIUse=3 WtCom= 9.52D-01 WtEn= 4.78D-02
 Coeff-Com: -0.167D-01 0.155D+00 0.861D+00
 Coeff-En:   0.000D+00 0.000D+00 0.100D+01
 Coeff:     -0.159D-01 0.148D+00 0.868D+00
 Gap=     0.379 Goal=   None    Shift=    0.000
 RMSDP=1.09D-03 MaxDP=3.60D-02 DE=-3.66D-02 OVMax= 9.48D-03

 Cycle   4  Pass 1  IDiag  1:
 E= -230.393646264632     Delta-E=       -0.002298382928 Rises=F Damp=F
 DIIS: error= 6.65D-04 at cycle   4 NSaved=   4.
 NSaved= 4 IEnMin= 4 EnMin= -230.393646264632     IErMin= 4 ErrMin= 6.65D-04
 ErrMax= 6.65D-04 EMaxC= 1.00D-01 BMatC= 2.05D-05 BMatP= 2.24D-03
 IDIUse=3 WtCom= 9.93D-01 WtEn= 6.65D-03
 Coeff-Com: -0.229D-02 0.178D-02 0.589D-01 0.942D+00
 Coeff-En:   0.000D+00 0.000D+00 0.000D+00 0.100D+01
 Coeff:     -0.227D-02 0.177D-02 0.585D-01 0.942D+00
 Gap=     0.380 Goal=   None    Shift=    0.000
 RMSDP=3.03D-04 MaxDP=7.92D-03 DE=-2.30D-03 OVMax= 2.79D-03

 Cycle   5  Pass 1  IDiag  1:
 E= -230.393694272951     Delta-E=       -0.000048008319 Rises=F Damp=F
 DIIS: error= 3.04D-04 at cycle   5 NSaved=   5.
 NSaved= 5 IEnMin= 5 EnMin= -230.393694272951     IErMin= 5 ErrMin= 3.04D-04
 ErrMax= 3.04D-04 EMaxC= 1.00D-01 BMatC= 3.08D-06 BMatP= 2.05D-05
 IDIUse=3 WtCom= 9.97D-01 WtEn= 3.04D-03
 Coeff-Com:  0.144D-02-0.945D-02-0.683D-01-0.223D+00 0.130D+01
 Coeff-En:   0.000D+00 0.000D+00 0.000D+00 0.000D+00 0.100D+01
 Coeff:      0.143D-02-0.943D-02-0.680D-01-0.222D+00 0.130D+01
 Gap=     0.380 Goal=   None    Shift=    0.000
 RMSDP=8.54D-05 MaxDP=2.46D-03 DE=-4.80D-05 OVMax= 2.51D-03

 Cycle   6  Pass 1  IDiag  1:
 E= -230.393710451421     Delta-E=       -0.000016178471 Rises=F Damp=F
 DIIS: error= 1.29D-04 at cycle   6 NSaved=   6.
 NSaved= 6 IEnMin= 6 EnMin= -230.393710451421     IErMin= 6 ErrMin= 1.29D-04
 ErrMax= 1.29D-04 EMaxC= 1.00D-01 BMatC= 4.77D-07 BMatP= 3.08D-06
 IDIUse=3 WtCom= 9.99D-01 WtEn= 1.29D-03
 Coeff-Com: -0.496D-03 0.496D-02 0.277D-01 0.454D-02-0.616D+00 0.158D+01
 Coeff-En:   0.000D+00 0.000D+00 0.000D+00 0.000D+00 0.000D+00 0.100D+01
 Coeff:     -0.495D-03 0.496D-02 0.276D-01 0.454D-02-0.615D+00 0.158D+01
 Gap=     0.381 Goal=   None    Shift=    0.000
 RMSDP=3.08D-05 MaxDP=6.92D-04 DE=-1.62D-05 OVMax= 1.61D-03

 Cycle   7  Pass 1  IDiag  1:
 E= -230.393714116273     Delta-E=       -0.000003664852 Rises=F Damp=F
 DIIS: error= 4.13D-05 at cycle   7 NSaved=   7.
 NSaved= 7 IEnMin= 7 EnMin= -230.393714116273     IErMin= 7 ErrMin= 4.13D-05
 ErrMax= 4.13D-05 EMaxC= 1.00D-01 BMatC= 6.04D-08 BMatP= 4.77D-07
 IDIUse=1 WtCom= 1.00D+00 WtEn= 0.00D+00
 Coeff-Com: -0.139D-03 0.115D-02 0.611D-02 0.152D-01-0.102D+00-0.697D-01
 Coeff-Com:  0.115D+01
 Coeff:     -0.139D-03 0.115D-02 0.611D-02 0.152D-01-0.102D+00-0.697D-01
 Coeff:      0.115D+01
 Gap=     0.381 Goal=   None    Shift=    0.000
 RMSDP=1.75D-05 MaxDP=4.59D-04 DE=-3.66D-06 OVMax= 5.24D-04

 Cycle   8  Pass 1  IDiag  1:
 E= -230.393714442577     Delta-E=       -0.000000326304 Rises=F Damp=F
 DIIS: error= 1.96D-05 at cycle   8 NSaved=   8.
 NSaved= 8 IEnMin= 8 EnMin= -230.393714442577     IErMin= 8 ErrMin= 1.96D-05
 ErrMax= 1.96D-05 EMaxC= 1.00D-01 BMatC= 2.41D-08 BMatP= 6.04D-08
 IDIUse=1 WtCom= 1.00D+00 WtEn= 0.00D+00
 Coeff-Com:  0.485D-04-0.547D-03-0.365D-02 0.325D-02 0.102D+00-0.406D+00
 Coeff-Com:  0.550D+00 0.754D+00
 Coeff:      0.485D-04-0.547D-03-0.365D-02 0.325D-02 0.102D+00-0.406D+00
 Coeff:      0.550D+00 0.754D+00
 Gap=     0.381 Goal=   None    Shift=    0.000
 RMSDP=7.52D-06 MaxDP=2.65D-04 DE=-3.26D-07 OVMax= 1.99D-04

 Cycle   9  Pass 1  IDiag  1:
 E= -230.393714497757     Delta-E=       -0.000000055180 Rises=F Damp=F
 DIIS: error= 3.38D-06 at cycle   9 NSaved=   9.
 NSaved= 9 IEnMin= 9 EnMin= -230.393714497757     IErMin= 9 ErrMin= 3.38D-06
 ErrMax= 3.38D-06 EMaxC= 1.00D-01 BMatC= 6.20D-10 BMatP= 2.41D-08
 IDIUse=1 WtCom= 1.00D+00 WtEn= 0.00D+00
 Coeff-Com:  0.619D-05-0.364D-04-0.134D-03-0.378D-02 0.844D-03 0.658D-01
 Coeff-Com: -0.215D+00-0.137D+00 0.129D+01
 Coeff:      0.619D-05-0.364D-04-0.134D-03-0.378D-02 0.844D-03 0.658D-01
 Coeff:     -0.215D+00-0.137D+00 0.129D+01
 Gap=     0.381 Goal=   None    Shift=    0.000
 RMSDP=2.51D-06 MaxDP=9.53D-05 DE=-5.52D-08 OVMax= 4.54D-05

 Cycle  10  Pass 1  IDiag  1:
 E= -230.393714500551     Delta-E=       -0.000000002794 Rises=F Damp=F
 DIIS: error= 4.90D-07 at cycle  10 NSaved=  10.
 NSaved=10 IEnMin=10 EnMin= -230.393714500551     IErMin=10 ErrMin= 4.90D-07
 ErrMax= 4.90D-07 EMaxC= 1.00D-01 BMatC= 1.15D-11 BMatP= 6.20D-10
 IDIUse=1 WtCom= 1.00D+00 WtEn= 0.00D+00
 Coeff-Com: -0.239D-05 0.276D-04 0.162D-03 0.399D-03-0.340D-02 0.182D-02
 Coeff-Com:  0.217D-01-0.526D-03-0.247D+00 0.123D+01
 Coeff:     -0.239D-05 0.276D-04 0.162D-03 0.399D-03-0.340D-02 0.182D-02
 Coeff:      0.217D-01-0.526D-03-0.247D+00 0.123D+01
 Gap=     0.381 Goal=   None    Shift=    0.000
 RMSDP=2.01D-07 MaxDP=5.27D-06 DE=-2.79D-09 OVMax= 4.05D-06

 Cycle  11  Pass 1  IDiag  1:
 E= -230.393714500593     Delta-E=       -0.000000000042 Rises=F Damp=F
 DIIS: error= 6.03D-08 at cycle  11 NSaved=  11.
 NSaved=11 IEnMin=11 EnMin= -230.393714500593     IErMin=11 ErrMin= 6.03D-08
 ErrMax= 6.03D-08 EMaxC= 1.00D-01 BMatC= 2.56D-13 BMatP= 1.15D-11
 IDIUse=1 WtCom= 1.00D+00 WtEn= 0.00D+00
 Coeff-Com:  0.247D-06-0.407D-05-0.263D-04-0.196D-04 0.631D-03-0.130D-02
 Coeff-Com: -0.125D-02 0.223D-02 0.322D-01-0.288D+00 0.126D+01
 Coeff:      0.247D-06-0.407D-05-0.263D-04-0.196D-04 0.631D-03-0.130D-02
 Coeff:     -0.125D-02 0.223D-02 0.322D-01-0.288D+00 0.126D+01
 Gap=     0.381 Goal=   None    Shift=    0.000
 RMSDP=5.00D-08 MaxDP=1.11D-06 DE=-4.20D-11 OVMax= 4.38D-07

 Cycle  12  Pass 1  IDiag  1:
 E= -230.393714500592     Delta-E=        0.000000000001 Rises=F Damp=F
 DIIS: error= 2.04D-08 at cycle  12 NSaved=  12.
 NSaved=12 IEnMin=11 EnMin= -230.393714500593     IErMin=12 ErrMin= 2.04D-08
 ErrMax= 2.04D-08 EMaxC= 1.00D-01 BMatC= 2.62D-14 BMatP= 2.56D-13
 IDIUse=1 WtCom= 1.00D+00 WtEn= 0.00D+00
 Coeff-Com:  0.130D-06-0.189D-05-0.116D-04-0.173D-04 0.270D-03-0.398D-03
 Coeff-Com: -0.996D-03 0.635D-03 0.163D-01-0.118D+00 0.373D+00 0.729D+00
 Coeff:      0.130D-06-0.189D-05-0.116D-04-0.173D-04 0.270D-03-0.398D-03
 Coeff:     -0.996D-03 0.635D-03 0.163D-01-0.118D+00 0.373D+00 0.729D+00
 Gap=     0.381 Goal=   None    Shift=    0.000
 RMSDP=6.24D-09 MaxDP=1.87D-07 DE= 1.02D-12 OVMax= 5.92D-08

 SCF Done:  E(RHF) =  -230.393714501     A.U. after   12 cycles
             Convg  =    0.6236D-08             -V/T =  2.0014
 KE= 2.300816636629D+02 PE=-8.872512184575D+02 EE= 2.514644014246D+02
 Leave Link  502 at Fri Dec  3 17:54:50 2021, MaxMem=  498073600 cpu:      33.9
 (Enter /apps/software//g09/l801.exe)
 ExpMin= 3.60D-02 ExpMax= 4.56D+03 ExpMxC= 6.82D+02 IAcc=3 IRadAn=         5 AccDes= 0.00D+00
 HarFok:  IExCor=  205 AccDes= 0.00D+00 IRadAn=         5 IDoV=-2
 ScaDFX=  1.000000  1.000000  1.000000  1.000000
 Largest valence mixing into a core orbital is  1.49D-04
 Largest core mixing into a valence orbital is  5.18D-05
 Range of M.O.s used for correlation:     7   174
 NBasis=   174 NAE=    21 NBE=    21 NFC=     6 NFV=     0
 NROrb=    168 NOA=    15 NOB=    15 NVA=   153 NVB=   153

 **** Warning!!: The largest alpha MO coefficient is  0.11943231D+03

 Leave Link  801 at Fri Dec  3 17:54:50 2021, MaxMem=  498073600 cpu:       1.2
 (Enter /apps/software//g09/l906.exe)
 Frozen-core derivative calculation, NFC=   6 NFV=   0.
 FulOut=F Deriv=T AODrv=F NAtomX=    12
   MMem=         169  MDisk=          15 MDiskD=          15
  W3Min=      657720 MinDsk=     1009670 NBas6D=         180
 NBas2D=       16542    NTT=       16290    LW2=     2040000
    MDV=   497683032 MDiskM=       38247 NBas2p=       16245
 Fully in-core method, ICMem=   280919484.
 IMap=   1   2   3   4   5   6   7   8   9  10  11  12  13  14  15  16  17  18  19  20
 IMap=  21
 JobTyp=1 Pass  1 fully in-core, NPsUse=  6.
 Compute canonical integrals, IntTyp=   4.
 Symmetry not used in FoFDir.
 MinBra= 0 MaxBra= 2 Meth= 1.
 IRaf=       0 NMat=   1 IRICut=       1 DoRegI=T DoRafI=F ISym2E= 0 JSym2E=0.
 Spin components of T(2) and E(2):
     alpha-alpha T2 =       0.5023974610D-01 E2=     -0.1119361159D+00
     alpha-beta  T2 =       0.2724094444D+00 E2=     -0.6506410878D+00
     beta-beta   T2 =       0.5023974610D-01 E2=     -0.1119361159D+00
 The integrals were generated   1 times.
 ANorm=    0.1171703434D+01
 E2 =    -0.8745133196D+00 EUMP2 =    -0.23126822782021D+03
 Leave Link  906 at Fri Dec  3 17:55:36 2021, MaxMem=  498073600 cpu:     277.5
 (Enter /apps/software//g09/l1002.exe)
 Minotr:  Closed shell wavefunction.
          Computing MP2/KS-MP2 derivatives.
          Using Z-Vector for PSCF gradient.
          Skipping F1 and S1 gradient terms here.
          Frozen-core window.
          Direct CPHF calculation.
          Differentiating once with respect to electric field.
                with respect to dipole field.
          Electric field/nuclear overlap derivatives assumed to be zero.
          Using symmetry in CPHF.
          Requested convergence is 1.0D-10 RMS, and 1.0D-09 maximum.
          NewPWx=F KeepS1=T KeepF1=T KeepIn=T MapXYZ=F SortEE=F KeepMc=T.
          MDV=     498073500 using IRadAn=       0.
          Keep R1 ints in memory in canonical form, NReq=133511598.
 Symmetry not used in FoFDir.
 MinBra= 0 MaxBra= 2 Meth= 1.
 IRaf=       0 NMat=   1 IRICut=       1 DoRegI=T DoRafI=F ISym2E= 0 JSym2E=0.
          Solving linear equations separately, MaxMat=       0.
          There are     1 degrees of freedom in the 1st order CPHF.  IDoFFX=0.
 LinEq1:  Iter=  0 NonCon=     1 RMS=4.11D-03 Max=4.78D-02
 AX will form     1 AO Fock derivatives at one time.
 LinEq1:  Iter=  1 NonCon=     1 RMS=9.74D-04 Max=1.25D-02
 LinEq1:  Iter=  2 NonCon=     1 RMS=2.73D-04 Max=3.68D-03
 LinEq1:  Iter=  3 NonCon=     1 RMS=4.64D-05 Max=6.45D-04
 LinEq1:  Iter=  4 NonCon=     1 RMS=5.82D-06 Max=7.66D-05
 LinEq1:  Iter=  5 NonCon=     1 RMS=1.34D-06 Max=1.41D-05
 LinEq1:  Iter=  6 NonCon=     1 RMS=3.57D-07 Max=7.03D-06
 LinEq1:  Iter=  7 NonCon=     1 RMS=2.10D-07 Max=5.53D-06
 LinEq1:  Iter=  8 NonCon=     1 RMS=5.52D-08 Max=8.86D-07
 LinEq1:  Iter=  9 NonCon=     1 RMS=1.05D-08 Max=1.59D-07
 LinEq1:  Iter= 10 NonCon=     1 RMS=2.19D-09 Max=2.77D-08
 LinEq1:  Iter= 11 NonCon=     1 RMS=9.40D-10 Max=1.64D-08
 LinEq1:  Iter= 12 NonCon=     1 RMS=3.75D-10 Max=4.58D-09
 LinEq1:  Iter= 13 NonCon=     0 RMS=6.48D-11 Max=8.56D-10
 Linear equations converged to 1.000D-10 1.000D-09 after    13 iterations.
 End of Minotr Frequency-dependent properties file   721 does not exist.
 End of Minotr Frequency-dependent properties file   722 does not exist.
 Leave Link 1002 at Fri Dec  3 17:55:46 2021, MaxMem=  498073600 cpu:      58.8
 (Enter /apps/software//g09/l601.exe)
 Copying SCF densities to generalized density rwf, IOpCl= 0 IROHF=0.

 **********************************************************************

            Population analysis using the MP2 density.

 **********************************************************************

 Orbital symmetries:
       Occupied  (A') (A') (A') (A') (A') (A') (A') (A') (A') (A')
                 (A') (A') (A') (A') (A') (A') (A") (A") (A") (A')
                 (A')
       Virtual   (A') (A') (A') (A') (A') (A') (A") (A") (A') (A')
                 (A") (A') (A") (A") (A') (A') (A') (A") (A') (A')
                 (A') (A') (A') (A') (A') (A') (A") (A") (A') (A')
                 (A') (A') (A') (A") (A') (A') (A') (A') (A') (A')
                 (A') (A') (A') (A') (A') (A') (A') (A') (A') (A")
                 (A") (A") (A') (A') (A') (A") (A") (A') (A') (A")
                 (A') (A') (A') (A') (A') (A') (A') (A') (A') (A')
                 (A') (A') (A") (A') (A') (A") (A") (A') (A") (A")
                 (A") (A') (A') (A') (A') (A") (A") (A') (A') (A")
                 (A') (A') (A') (A') (A') (A') (A") (A") (A") (A")
                 (A") (A") (A') (A') (A') (A') (A') (A') (A') (A')
                 (A') (A") (A") (A") (A') (A') (A') (A') (A') (A')
                 (A') (A') (A') (A') (A") (A') (A') (A") (A") (A')
                 (A") (A") (A") (A') (A') (A') (A') (A') (A') (A')
                 (A') (A') (A') (A') (A') (A') (A') (A') (A') (A')
                 (A') (A') (A')
 The electronic state is 1-A'.
 Alpha  occ. eigenvalues --  -11.23909 -11.23907 -11.23907 -11.23578 -11.23577
 Alpha  occ. eigenvalues --  -11.23575  -1.04490  -1.01325  -1.01322  -0.78362
 Alpha  occ. eigenvalues --   -0.78362  -0.71480  -0.69115  -0.64693  -0.64687
 Alpha  occ. eigenvalues --   -0.49155  -0.42439  -0.38323  -0.38319  -0.33766
 Alpha  occ. eigenvalues --   -0.33745
 Alpha virt. eigenvalues --    0.04318   0.04447   0.04447   0.06210   0.06212
 Alpha virt. eigenvalues --    0.08444   0.11184   0.11184   0.11742   0.11755
 Alpha virt. eigenvalues --    0.13395   0.14993   0.16528   0.16529   0.17648
 Alpha virt. eigenvalues --    0.17986   0.17987   0.18849   0.19451   0.19451
 Alpha virt. eigenvalues --    0.20367   0.20419   0.21776   0.21777   0.22904
 Alpha virt. eigenvalues --    0.22905   0.24411   0.24414   0.25089   0.25089
 Alpha virt. eigenvalues --    0.28304   0.28305   0.28658   0.29647   0.32561
 Alpha virt. eigenvalues --    0.35046   0.36346   0.38796   0.38805   0.43587
 Alpha virt. eigenvalues --    0.43589   0.48958   0.55369   0.56657   0.56662
 Alpha virt. eigenvalues --    0.63389   0.65053   0.66651   0.66651   0.67490
 Alpha virt. eigenvalues --    0.75250   0.75250   0.80018   0.81508   0.81518
 Alpha virt. eigenvalues --    0.83423   0.83426   0.87486   0.87488   0.88657
 Alpha virt. eigenvalues --    0.96899   0.98613   0.98622   1.02382   1.02876
 Alpha virt. eigenvalues --    1.04401   1.04402   1.09774   1.09777   1.16047
 Alpha virt. eigenvalues --    1.16049   1.23771   1.27190   1.27659   1.27662
 Alpha virt. eigenvalues --    1.29920   1.29922   1.36095   1.39938   1.46191
 Alpha virt. eigenvalues --    1.46219   1.48814   1.50245   1.50280   1.62065
 Alpha virt. eigenvalues --    1.62902   1.62912   1.62925   1.62941   1.72085
 Alpha virt. eigenvalues --    1.84458   1.91731   1.91736   1.93733   1.97651
 Alpha virt. eigenvalues --    1.97665   1.97918   1.97924   2.01776   2.09317
 Alpha virt. eigenvalues --    2.11424   2.11432   2.15940   2.15950   2.17109
 Alpha virt. eigenvalues --    2.28116   2.28164   2.28866   2.42015   2.42033
 Alpha virt. eigenvalues --    2.45290   2.71830   2.71854   2.74983   2.78845
 Alpha virt. eigenvalues --    2.78877   2.83500   2.96005   2.96018   2.97437
 Alpha virt. eigenvalues --    3.04875   3.04880   3.06131   3.10248   3.11693
 Alpha virt. eigenvalues --    3.14057   3.14077   3.15546   3.15549   3.26996
 Alpha virt. eigenvalues --    3.32739   3.32746   3.37500   3.42652   3.42706
 Alpha virt. eigenvalues --    3.46857   3.46871   3.48646   3.51940   3.51975
 Alpha virt. eigenvalues --    3.76467   3.80811   3.88509   3.88529   4.39386
 Alpha virt. eigenvalues --    4.39394   4.47569  24.70153  24.76083  24.76085
 Alpha virt. eigenvalues --   26.03997  26.04054  26.11844
          Condensed to atoms (all electrons):
              1          2          3          4          5          6
     1  C    8.492008  -2.475547   0.336320  -0.616835  -0.120411   0.337877
     2  C   -2.475547   8.491289  -0.615938   0.336678   0.337007  -0.120769
     3  C    0.336320  -0.615938   8.495125  -0.119457  -2.479579   0.336532
     4  C   -0.616835   0.336678  -0.119457   8.496414   0.336637  -2.480634
     5  C   -0.120411   0.337007  -2.479579   0.336637   8.495642  -0.616278
     6  C    0.337877  -0.120769   0.336532  -2.480634  -0.616278   8.496627
     7  H   -0.239039   0.550378  -0.064199  -0.011919   0.007036   0.031531
     8  H    0.550528  -0.239139  -0.011938  -0.064253   0.031551   0.007089
     9  H   -0.064363   0.007109   0.031489   0.550937  -0.011825  -0.239618
    10  H    0.007012  -0.064230   0.550813   0.031503  -0.239474  -0.011841
    11  H   -0.011807   0.031487   0.007050  -0.239801  -0.064233   0.551121
    12  H    0.031519  -0.011858  -0.239660   0.007038   0.551009  -0.064217
              7          8          9         10         11         12
     1  C   -0.239039   0.550528  -0.064363   0.007012  -0.011807   0.031519
     2  C    0.550378  -0.239139   0.007109  -0.064230   0.031487  -0.011858
     3  C   -0.064199  -0.011938   0.031489   0.550813   0.007050  -0.239660
     4  C   -0.011919  -0.064253   0.550937   0.031503  -0.239801   0.007038
     5  C    0.007036   0.031551  -0.011825  -0.239474  -0.064233   0.551009
     6  C    0.031531   0.007089  -0.239618  -0.011841   0.551121  -0.064217
     7  H    0.523064  -0.013715  -0.001761  -0.009054   0.002555  -0.001759
     8  H   -0.013715   0.523104  -0.009075  -0.001765  -0.001757   0.002557
     9  H   -0.001761  -0.009075   0.523134   0.002551  -0.013759  -0.001758
    10  H   -0.009054  -0.001765   0.002551   0.523112  -0.001758  -0.013749
    11  H    0.002555  -0.001757  -0.013759  -0.001758   0.523183  -0.009073
    12  H   -0.001759   0.002557  -0.001758  -0.013749  -0.009073   0.523163
 Mulliken atomic charges:
              1
     1  C   -0.227260
     2  C   -0.226468
     3  C   -0.226557
     4  C   -0.226308
     5  C   -0.227082
     6  C   -0.227419
     7  H    0.226883
     8  H    0.226813
     9  H    0.226938
    10  H    0.226880
    11  H    0.226792
    12  H    0.226788
 Sum of Mulliken atomic charges =   0.00000
 Mulliken charges with hydrogens summed into heavy atoms:
              1
     1  C   -0.000447
     2  C    0.000416
     3  C    0.000323
     4  C    0.000630
     5  C   -0.000294
     6  C   -0.000628
 Sum of Mulliken charges with hydrogens summed into heavy atoms =   0.00000
 Electronic spatial extent (au):  <R**2>=            638.2338
 Charge=              0.0000 electrons
 Dipole moment (field-independent basis, Debye):
    X=             -0.0001    Y=             -0.0002    Z=              0.0000  Tot=              0.0002
 Quadrupole moment (field-independent basis, Debye-Ang):
   XX=            -30.0299   YY=            -30.0243   ZZ=            -41.6025
   XY=             -0.0023   XZ=              0.0000   YZ=              0.0000
 Traceless Quadrupole moment (field-independent basis, Debye-Ang):
   XX=              3.8557   YY=              3.8613   ZZ=             -7.7170
   XY=             -0.0023   XZ=              0.0000   YZ=              0.0000
 Octapole moment (field-independent basis, Debye-Ang**2):
  XXX=            -16.6737  YYY=             -9.5500  ZZZ=              0.0000  XYY=             16.6699
  XXY=              9.5534  XXZ=              0.0000  XZZ=              0.0002  YZZ=             -0.0002
  YYZ=              0.0000  XYZ=              0.0000
 Hexadecapole moment (field-independent basis, Debye-Ang**3):
 XXXX=           -388.4256 YYYY=           -388.2784 ZZZZ=            -52.7318 XXXY=             -0.0168
 XXXZ=              0.0000 YYYX=             -0.0244 YYYZ=              0.0000 ZZZX=              0.0000
 ZZZY=              0.0000 XXYY=           -129.4513 XXZZ=            -90.5337 YYZZ=            -90.5147
 XXYZ=              0.0000 YYXZ=              0.0000 ZZXY=             -0.0044
 N-N= 1.753114388694D+02 E-N=-8.885006519413D+02  KE= 2.313574212142D+02
 Symmetry A'   KE= 2.246079520919D+02
 Symmetry A"   KE= 6.749469122312D+00
 No NMR shielding tensors so no spin-rotation constants.
 Leave Link  601 at Fri Dec  3 17:55:47 2021, MaxMem=  498073600 cpu:       1.6
 (Enter /apps/software//g09/l9999.exe)
 1\1\GINC-DLT01\SP\RMP2-FC\6-311++G(d,p)\C6H6\ITAMAR\03-Dec-2021\0\\#P 
 MP2/6-311++G** DENSITY=MP2\\Acetylene trimerization\\0,1\C,0,-1.151754
 ,1.366558,0.\C,0,0.,1.787096,0.\C,0,1.75949,0.314231,0.\C,0,-1.547911,
 -0.893513,0.\C,0,1.548345,-0.893519,0.\C,0,-0.608105,-1.680949,0.\H,0,
 0.729765,2.561162,0.\H,0,-2.208608,1.488055,0.\H,0,-2.583048,-0.648206
 ,0.\H,0,2.392812,1.168973,0.\H,0,-0.184259,-2.656652,0.\H,0,1.85295,-1
 .912756,0.\\Version=EM64L-G09RevA.02\State=1-A'\HF=-230.3937145\MP2=-2
 31.2682278\RMSD=6.236e-09\Dipole=-0.0000266,-0.0000715,0.\Quadrupole=2
 .866603,2.8707832,-5.7373863,-0.0017408,0.,0.\PG=CS [SG(C6H6)]\\@


 ... FOR AFTERWARDS A MAN FINDS PLEASURE IN HIS PAINS,
 WHEN HE HAS SUFFERED LONG AND WANDERED FAR.

                                    -- HOMER
 Job cpu time:  0 days  0 hours  6 minutes 19.2 seconds.
 File lengths (MBytes):  RWF=     14 Int=      0 D2E=      0 Chk=      4 Scr=      1
 Normal termination of Gaussian 09 at Fri Dec  3 17:55:47 2021.
