Penta-NH                                                                
SP        RMP2-FC                                                     6-311++G(d,p)       
Number of atoms                            I               11
Info1-9                                    I   N=           9
          27          20           0           0           0         110
           1           2           1
Charge                                     I                0
Multiplicity                               I                1
Number of electrons                        I               42
Number of alpha electrons                  I               21
Number of beta electrons                   I               21
Number of basis functions                  I              167
Number of independent functions            I              167
Number of point charges in /Mol/           I                0
Number of translation vectors              I                0
Atomic numbers                             I   N=          11
           6           6           1           6           1           6
           1           6           1           7           1
Nuclear charges                            R   N=          11
  6.00000000E+00  6.00000000E+00  1.00000000E+00  6.00000000E+00  1.00000000E+00
  6.00000000E+00  1.00000000E+00  6.00000000E+00  1.00000000E+00  7.00000000E+00
  1.00000000E+00
Current cartesian coordinates              R   N=          33
  3.39396213E-16  1.50028192E+00  0.00000000E+00 -2.23285693E+00 -2.22532260E-01
  0.00000000E+00 -4.17674451E+00  4.04715087E-01  0.00000000E+00 -1.35760949E+00
 -2.60699436E+00  0.00000000E+00 -2.48117829E+00 -4.31532568E+00  0.00000000E+00
  2.26504653E+00 -1.66815574E-01  0.00000000E+00  4.17936934E+00  5.37687556E-01
  0.00000000E+00  1.45602643E+00 -2.57334779E+00  0.00000000E+00  2.61805115E+00
 -4.25469760E+00  0.00000000E+00  1.06784644E-01  3.91004935E+00  0.00000000E+00
 -1.67062940E+00  4.67372736E+00  0.00000000E+00
Force Field                                I                0
Int Atom Types                             I   N=          11
           0           0           0           0           0           0
           0           0           0           0           0
MM charges                                 R   N=          11
  0.00000000E+00  0.00000000E+00  0.00000000E+00  0.00000000E+00  0.00000000E+00
  0.00000000E+00  0.00000000E+00  0.00000000E+00  0.00000000E+00  0.00000000E+00
  0.00000000E+00
Integer atomic weights                     I   N=          11
          12          12           1          12           1          12
           1          12           1          14           1
Real atomic weights                        R   N=          11
  1.20000000E+01  1.20000000E+01  1.00782504E+00  1.20000000E+01  1.00782504E+00
  1.20000000E+01  1.00782504E+00  1.20000000E+01  1.00782504E+00  1.40030740E+01
  1.00782504E+00
Atom fragment info                         I   N=          11
           0           0           0           0           0           0
           0           0           0           0           0
Atom residue num                           I   N=          11
           0           0           0           0           0           0
           0           0           0           0           0
Nuclear spins                              I   N=          11
           0           0           1           0           1           0
           1           0           1           2           1
Nuclear ZEff                               R   N=          11
 -3.60000000E+00 -3.60000000E+00 -1.00000000E+00 -3.60000000E+00 -1.00000000E+00
 -3.60000000E+00 -1.00000000E+00 -3.60000000E+00 -1.00000000E+00 -4.55000000E+00
 -1.00000000E+00
Nuclear QMom                               R   N=          11
  0.00000000E+00  0.00000000E+00  0.00000000E+00  0.00000000E+00  0.00000000E+00
  0.00000000E+00  0.00000000E+00  0.00000000E+00  0.00000000E+00  2.04400000E+00
  0.00000000E+00
Nuclear GFac                               R   N=          11
  0.00000000E+00  0.00000000E+00  2.79284600E+00  0.00000000E+00  2.79284600E+00
  0.00000000E+00  2.79284600E+00  0.00000000E+00  2.79284600E+00  4.03761000E-01
  2.79284600E+00
MicOpt                                     I   N=          11
          -1          -1          -1          -1          -1          -1
          -1          -1          -1          -1          -1
Number of contracted shells                I               61
Number of primitive shells                 I              113
Pure/Cartesian d shells                    I                0
Pure/Cartesian f shells                    I                0
Highest angular momentum                   I                2
Largest degree of contraction              I                6
Shell types                                I   N=          61
           0          -1          -1          -1          -1          -2
           0          -1          -1          -1          -1          -2
           0           0           0           0           1           0
          -1          -1          -1          -1          -2           0
           0           0           0           1           0          -1
          -1          -1          -1          -2           0           0
           0           0           1           0          -1          -1
          -1          -1          -2           0           0           0
           0           1           0          -1          -1          -1
          -1          -2           0           0           0           0
           1
Number of primitives per shell             I   N=          61
           6           3           1           1           1           1
           6           3           1           1           1           1
           3           1           1           1           1           6
           3           1           1           1           1           3
           1           1           1           1           6           3
           1           1           1           1           3           1
           1           1           1           6           3           1
           1           1           1           3           1           1
           1           1           6           3           1           1
           1           1           3           1           1           1
           1
Shell to atom map                          I   N=          61
           1           1           1           1           1           1
           2           2           2           2           2           2
           3           3           3           3           3           4
           4           4           4           4           4           5
           5           5           5           5           6           6
           6           6           6           6           7           7
           7           7           7           8           8           8
           8           8           8           9           9           9
           9           9          10          10          10          10
          10          10          11          11          11          11
          11
Primitive exponents                        R   N=         113
  4.56324000E+03  6.82024000E+02  1.54973000E+02  4.44553000E+01  1.30290000E+01
  1.82773000E+00  2.09642000E+01  4.80331000E+00  1.45933000E+00  4.83456000E-01
  1.45585000E-01  4.38000000E-02  6.26000000E-01  4.56324000E+03  6.82024000E+02
  1.54973000E+02  4.44553000E+01  1.30290000E+01  1.82773000E+00  2.09642000E+01
  4.80331000E+00  1.45933000E+00  4.83456000E-01  1.45585000E-01  4.38000000E-02
  6.26000000E-01  3.38650000E+01  5.09479000E+00  1.15879000E+00  3.25840000E-01
  1.02741000E-01  3.60000000E-02  7.50000000E-01  4.56324000E+03  6.82024000E+02
  1.54973000E+02  4.44553000E+01  1.30290000E+01  1.82773000E+00  2.09642000E+01
  4.80331000E+00  1.45933000E+00  4.83456000E-01  1.45585000E-01  4.38000000E-02
  6.26000000E-01  3.38650000E+01  5.09479000E+00  1.15879000E+00  3.25840000E-01
  1.02741000E-01  3.60000000E-02  7.50000000E-01  4.56324000E+03  6.82024000E+02
  1.54973000E+02  4.44553000E+01  1.30290000E+01  1.82773000E+00  2.09642000E+01
  4.80331000E+00  1.45933000E+00  4.83456000E-01  1.45585000E-01  4.38000000E-02
  6.26000000E-01  3.38650000E+01  5.09479000E+00  1.15879000E+00  3.25840000E-01
  1.02741000E-01  3.60000000E-02  7.50000000E-01  4.56324000E+03  6.82024000E+02
  1.54973000E+02  4.44553000E+01  1.30290000E+01  1.82773000E+00  2.09642000E+01
  4.80331000E+00  1.45933000E+00  4.83456000E-01  1.45585000E-01  4.38000000E-02
  6.26000000E-01  3.38650000E+01  5.09479000E+00  1.15879000E+00  3.25840000E-01
  1.02741000E-01  3.60000000E-02  7.50000000E-01  6.29348000E+03  9.49044000E+02
  2.18776000E+02  6.36916000E+01  1.88282000E+01  2.72023000E+00  3.06331000E+01
  7.02614000E+00  2.11205000E+00  6.84009000E-01  2.00878000E-01  6.39000000E-02
  9.13000000E-01  3.38650000E+01  5.09479000E+00  1.15879000E+00  3.25840000E-01
  1.02741000E-01  3.60000000E-02  7.50000000E-01
Contraction coefficients                   R   N=         113
  1.96665025E-03  1.52306019E-02  7.61269097E-02  2.60801033E-01  6.16462078E-01
  2.21006028E-01  1.14660081E-01  9.19999648E-01 -3.03068213E-03  1.00000000E+00
  1.00000000E+00  1.00000000E+00  1.00000000E+00  1.96665025E-03  1.52306019E-02
  7.61269097E-02  2.60801033E-01  6.16462078E-01  2.21006028E-01  1.14660081E-01
  9.19999648E-01 -3.03068213E-03  1.00000000E+00  1.00000000E+00  1.00000000E+00
  1.00000000E+00  2.54938145E-02  1.90373109E-01  8.52161486E-01  1.00000000E+00
  1.00000000E+00  1.00000000E+00  1.00000000E+00  1.96665025E-03  1.52306019E-02
  7.61269097E-02  2.60801033E-01  6.16462078E-01  2.21006028E-01  1.14660081E-01
  9.19999648E-01 -3.03068213E-03  1.00000000E+00  1.00000000E+00  1.00000000E+00
  1.00000000E+00  2.54938145E-02  1.90373109E-01  8.52161486E-01  1.00000000E+00
  1.00000000E+00  1.00000000E+00  1.00000000E+00  1.96665025E-03  1.52306019E-02
  7.61269097E-02  2.60801033E-01  6.16462078E-01  2.21006028E-01  1.14660081E-01
  9.19999648E-01 -3.03068213E-03  1.00000000E+00  1.00000000E+00  1.00000000E+00
  1.00000000E+00  2.54938145E-02  1.90373109E-01  8.52161486E-01  1.00000000E+00
  1.00000000E+00  1.00000000E+00  1.00000000E+00  1.96665025E-03  1.52306019E-02
  7.61269097E-02  2.60801033E-01  6.16462078E-01  2.21006028E-01  1.14660081E-01
  9.19999648E-01 -3.03068213E-03  1.00000000E+00  1.00000000E+00  1.00000000E+00
  1.00000000E+00  2.54938145E-02  1.90373109E-01  8.52161486E-01  1.00000000E+00
  1.00000000E+00  1.00000000E+00  1.00000000E+00  1.96978815E-03  1.49612859E-02
  7.35005308E-02  2.48936766E-01  6.02459433E-01  2.56201759E-01  1.11906080E-01
  9.21666655E-01 -2.56919183E-03  1.00000000E+00  1.00000000E+00  1.00000000E+00
  1.00000000E+00  2.54938145E-02  1.90373109E-01  8.52161486E-01  1.00000000E+00
  1.00000000E+00  1.00000000E+00  1.00000000E+00
P(S=P) Contraction coefficients            R   N=         113
  0.00000000E+00  0.00000000E+00  0.00000000E+00  0.00000000E+00  0.00000000E+00
  0.00000000E+00  4.02486927E-02  2.37593957E-01  8.15853851E-01  1.00000000E+00
  1.00000000E+00  1.00000000E+00  0.00000000E+00  0.00000000E+00  0.00000000E+00
  0.00000000E+00  0.00000000E+00  0.00000000E+00  0.00000000E+00  4.02486927E-02
  2.37593957E-01  8.15853851E-01  1.00000000E+00  1.00000000E+00  1.00000000E+00
  0.00000000E+00  0.00000000E+00  0.00000000E+00  0.00000000E+00  0.00000000E+00
  0.00000000E+00  0.00000000E+00  0.00000000E+00  0.00000000E+00  0.00000000E+00
  0.00000000E+00  0.00000000E+00  0.00000000E+00  0.00000000E+00  4.02486927E-02
  2.37593957E-01  8.15853851E-01  1.00000000E+00  1.00000000E+00  1.00000000E+00
  0.00000000E+00  0.00000000E+00  0.00000000E+00  0.00000000E+00  0.00000000E+00
  0.00000000E+00  0.00000000E+00  0.00000000E+00  0.00000000E+00  0.00000000E+00
  0.00000000E+00  0.00000000E+00  0.00000000E+00  0.00000000E+00  4.02486927E-02
  2.37593957E-01  8.15853851E-01  1.00000000E+00  1.00000000E+00  1.00000000E+00
  0.00000000E+00  0.00000000E+00  0.00000000E+00  0.00000000E+00  0.00000000E+00
  0.00000000E+00  0.00000000E+00  0.00000000E+00  0.00000000E+00  0.00000000E+00
  0.00000000E+00  0.00000000E+00  0.00000000E+00  0.00000000E+00  4.02486927E-02
  2.37593957E-01  8.15853851E-01  1.00000000E+00  1.00000000E+00  1.00000000E+00
  0.00000000E+00  0.00000000E+00  0.00000000E+00  0.00000000E+00  0.00000000E+00
  0.00000000E+00  0.00000000E+00  0.00000000E+00  0.00000000E+00  0.00000000E+00
  0.00000000E+00  0.00000000E+00  0.00000000E+00  0.00000000E+00  3.83119186E-02
  2.37403116E-01  8.17592398E-01  1.00000000E+00  1.00000000E+00  1.00000000E+00
  0.00000000E+00  0.00000000E+00  0.00000000E+00  0.00000000E+00  0.00000000E+00
  0.00000000E+00  0.00000000E+00  0.00000000E+00
Coordinates of each shell                  R   N=         183
  0.00000000E+00  1.50028183E+00  0.00000000E+00  0.00000000E+00  1.50028183E+00
  0.00000000E+00  0.00000000E+00  1.50028183E+00  0.00000000E+00  0.00000000E+00
  1.50028183E+00  0.00000000E+00  0.00000000E+00  1.50028183E+00  0.00000000E+00
  0.00000000E+00  1.50028183E+00  0.00000000E+00 -2.23285693E+00 -2.22532350E-01
  0.00000000E+00 -2.23285693E+00 -2.22532350E-01  0.00000000E+00 -2.23285693E+00
 -2.22532350E-01  0.00000000E+00 -2.23285693E+00 -2.22532350E-01  0.00000000E+00
 -2.23285693E+00 -2.22532350E-01  0.00000000E+00 -2.23285693E+00 -2.22532350E-01
  0.00000000E+00 -4.17674451E+00  4.04714997E-01  0.00000000E+00 -4.17674451E+00
  4.04714997E-01  0.00000000E+00 -4.17674451E+00  4.04714997E-01  0.00000000E+00
 -4.17674451E+00  4.04714997E-01  0.00000000E+00 -4.17674451E+00  4.04714997E-01
  0.00000000E+00 -1.35760949E+00 -2.60699445E+00  0.00000000E+00 -1.35760949E+00
 -2.60699445E+00  0.00000000E+00 -1.35760949E+00 -2.60699445E+00  0.00000000E+00
 -1.35760949E+00 -2.60699445E+00  0.00000000E+00 -1.35760949E+00 -2.60699445E+00
  0.00000000E+00 -1.35760949E+00 -2.60699445E+00  0.00000000E+00 -2.48117829E+00
 -4.31532577E+00  0.00000000E+00 -2.48117829E+00 -4.31532577E+00  0.00000000E+00
 -2.48117829E+00 -4.31532577E+00  0.00000000E+00 -2.48117829E+00 -4.31532577E+00
  0.00000000E+00 -2.48117829E+00 -4.31532577E+00  0.00000000E+00  2.26504653E+00
 -1.66815664E-01  0.00000000E+00  2.26504653E+00 -1.66815664E-01  0.00000000E+00
  2.26504653E+00 -1.66815664E-01  0.00000000E+00  2.26504653E+00 -1.66815664E-01
  0.00000000E+00  2.26504653E+00 -1.66815664E-01  0.00000000E+00  2.26504653E+00
 -1.66815664E-01  0.00000000E+00  4.17936934E+00  5.37687466E-01  0.00000000E+00
  4.17936934E+00  5.37687466E-01  0.00000000E+00  4.17936934E+00  5.37687466E-01
  0.00000000E+00  4.17936934E+00  5.37687466E-01  0.00000000E+00  4.17936934E+00
  5.37687466E-01  0.00000000E+00  1.45602643E+00 -2.57334788E+00  0.00000000E+00
  1.45602643E+00 -2.57334788E+00  0.00000000E+00  1.45602643E+00 -2.57334788E+00
  0.00000000E+00  1.45602643E+00 -2.57334788E+00  0.00000000E+00  1.45602643E+00
 -2.57334788E+00  0.00000000E+00  1.45602643E+00 -2.57334788E+00  0.00000000E+00
  2.61805115E+00 -4.25469769E+00  0.00000000E+00  2.61805115E+00 -4.25469769E+00
  0.00000000E+00  2.61805115E+00 -4.25469769E+00  0.00000000E+00  2.61805115E+00
 -4.25469769E+00  0.00000000E+00  2.61805115E+00 -4.25469769E+00  0.00000000E+00
  1.06784644E-01  3.91004926E+00  0.00000000E+00  1.06784644E-01  3.91004926E+00
  0.00000000E+00  1.06784644E-01  3.91004926E+00  0.00000000E+00  1.06784644E-01
  3.91004926E+00  0.00000000E+00  1.06784644E-01  3.91004926E+00  0.00000000E+00
  1.06784644E-01  3.91004926E+00  0.00000000E+00 -1.67062940E+00  4.67372727E+00
  0.00000000E+00 -1.67062940E+00  4.67372727E+00  0.00000000E+00 -1.67062940E+00
  4.67372727E+00  0.00000000E+00 -1.67062940E+00  4.67372727E+00  0.00000000E+00
 -1.67062940E+00  4.67372727E+00  0.00000000E+00
Constraint Structure                       R   N=          33
  0.00000000E+00  1.50028183E+00  0.00000000E+00 -2.23285693E+00 -2.22532350E-01
  0.00000000E+00 -4.17674451E+00  4.04714997E-01  0.00000000E+00 -1.35760949E+00
 -2.60699445E+00  0.00000000E+00 -2.48117829E+00 -4.31532577E+00  0.00000000E+00
  2.26504653E+00 -1.66815664E-01  0.00000000E+00  4.17936934E+00  5.37687466E-01
  0.00000000E+00  1.45602643E+00 -2.57334788E+00  0.00000000E+00  2.61805115E+00
 -4.25469769E+00  0.00000000E+00  1.06784644E-01  3.91004926E+00  0.00000000E+00
 -1.67062940E+00  4.67372727E+00  0.00000000E+00
Num ILSW                                   I              100
ILSW                                       I   N=         100
           0           0           0           0           2           0
           0           0           0           0           0          -1
           0           0           0           0           0           0
           0           0           0           0           0           0
           1           0           0           0           0           0
           0           0      100000           0          -1           0
           0           0           0           0           0           0
           0           0           0           1           0           0
           0           0           1           0           0           0
           0           0           4          40           0           0
           0           0           0           0           0           0
           0           0           0           0           0           0
           0           0           0           0           0           0
           0           0           0           0           0           0
           0           0           0           0           0           0
           0           0           0           0           0           0
           0           0           0           0
Num RLSW                                   I               40
RLSW                                       R   N=          40
  1.00000000E+00  1.00000000E+00  1.00000000E+00  1.00000000E+00  1.00000000E+00
  0.00000000E+00  0.00000000E+00  1.00000000E+00  0.00000000E+00  0.00000000E+00
  0.00000000E+00  0.00000000E+00  1.00000000E+00  0.00000000E+00  0.00000000E+00
  0.00000000E+00  0.00000000E+00  1.00000000E+00  0.00000000E+00  0.00000000E+00
  0.00000000E+00  0.00000000E+00  1.00000000E+00  0.00000000E+00  0.00000000E+00
  0.00000000E+00  0.00000000E+00  1.00000000E+00  0.00000000E+00  0.00000000E+00
  0.00000000E+00  0.00000000E+00  0.00000000E+00  0.00000000E+00  0.00000000E+00
  0.00000000E+00  0.00000000E+00  0.00000000E+00  1.00000000E+00  1.00000000E+00
MxBond                                     I                3
NBond                                      I   N=          11
           3           3           1           3           1           3
           1           3           1           2           1
IBond                                      I   N=          33
           2           6          10           1           3           4
           2           0           0           2           5           8
           4           0           0           1           7           8
           6           0           0           4           6           9
           8           0           0           1          11           0
          10           0           0
RBond                                      R   N=          33
  1.00000000E+00  1.00000000E+00  2.00000000E+00  1.00000000E+00  1.00000000E+00
  2.00000000E+00  1.00000000E+00  0.00000000E+00  0.00000000E+00  2.00000000E+00
  1.00000000E+00  1.00000000E+00  1.00000000E+00  0.00000000E+00  0.00000000E+00
  1.00000000E+00  1.00000000E+00  2.00000000E+00  1.00000000E+00  0.00000000E+00
  0.00000000E+00  1.00000000E+00  2.00000000E+00  1.00000000E+00  1.00000000E+00
  0.00000000E+00  0.00000000E+00  2.00000000E+00  1.00000000E+00  0.00000000E+00
  1.00000000E+00  0.00000000E+00  0.00000000E+00
Virial Ratio                               R      2.001318243615386E+00
SCF Energy                                 R     -2.467023644063667E+02
MP2 Energy                                 R     -2.475576143852284E+02
Total Energy                               R     -2.475576143852284E+02
Post-SCF wavefunction norm                 R      1.144197946473835E+00
RMS Density                                R      2.114750016514537E-09
External E-field                           R   N=          35
  0.00000000E+00  0.00000000E+00  0.00000000E+00  0.00000000E+00  0.00000000E+00
  0.00000000E+00  0.00000000E+00  0.00000000E+00  0.00000000E+00  0.00000000E+00
  0.00000000E+00  0.00000000E+00  0.00000000E+00  0.00000000E+00  0.00000000E+00
  0.00000000E+00  0.00000000E+00  0.00000000E+00  0.00000000E+00  0.00000000E+00
  0.00000000E+00  0.00000000E+00  0.00000000E+00  0.00000000E+00  0.00000000E+00
  0.00000000E+00  0.00000000E+00  0.00000000E+00  0.00000000E+00  0.00000000E+00
  0.00000000E+00  0.00000000E+00  0.00000000E+00  0.00000000E+00  0.00000000E+00
IOpCl                                      I                0
IROHF                                      I                0
Alpha Orbital Energies                     R   N=         167
 -1.55704727E+01 -1.12960802E+01 -1.12611799E+01 -1.12544619E+01 -1.12450262E+01
 -1.12410993E+01 -1.23421072E+00 -1.14261914E+00 -9.92734981E-01 -9.00636761E-01
 -7.69944926E-01 -7.41612105E-01 -7.09936682E-01 -6.13812073E-01 -5.88031737E-01
 -5.59690088E-01 -5.37377991E-01 -5.28754507E-01 -4.30670189E-01 -3.99893636E-01
 -3.31510723E-01  3.73831542E-02  4.28596528E-02  4.60927634E-02  5.22739287E-02
  6.92431780E-02  7.97153547E-02  1.21345257E-01  1.22564503E-01  1.44203276E-01
  1.46361992E-01  1.52027691E-01  1.52236725E-01  1.56022642E-01  1.74065446E-01
  1.76876309E-01  1.79837828E-01  1.86387576E-01  1.98576082E-01  2.00279031E-01
  2.03122790E-01  2.06064716E-01  2.27517064E-01  2.49939763E-01  2.53708029E-01
  2.60614017E-01  2.66883734E-01  2.81085958E-01  2.81667005E-01  2.99694810E-01
  3.31623796E-01  3.35518183E-01  3.52376224E-01  3.70545275E-01  3.88119955E-01
  3.99554060E-01  4.07078915E-01  4.19602209E-01  4.48828434E-01  4.54314968E-01
  5.22494991E-01  5.78509444E-01  6.01043334E-01  6.39097381E-01  6.85620402E-01
  7.01048176E-01  7.14136017E-01  7.25654172E-01  7.37657817E-01  7.42657025E-01
  7.60929229E-01  7.75219440E-01  8.21576821E-01  8.26359784E-01  8.36314315E-01
  8.90209068E-01  9.09576791E-01  9.32568293E-01  9.77216625E-01  9.89054242E-01
  9.97656257E-01  1.00105021E+00  1.05559543E+00  1.06693307E+00  1.08476891E+00
  1.09502749E+00  1.09605209E+00  1.11264663E+00  1.16205950E+00  1.19306245E+00
  1.19537041E+00  1.22535171E+00  1.25236868E+00  1.27558197E+00  1.30966730E+00
  1.35361021E+00  1.43208635E+00  1.52503234E+00  1.59430573E+00  1.66258715E+00
  1.73235354E+00  1.78199775E+00  1.79715678E+00  1.80196584E+00  1.81234735E+00
  1.83512070E+00  1.84763446E+00  1.93904563E+00  1.99704611E+00  2.00719011E+00
  2.00933974E+00  2.05327446E+00  2.09942133E+00  2.10991059E+00  2.13184173E+00
  2.19927644E+00  2.21430978E+00  2.24162692E+00  2.26994602E+00  2.33728900E+00
  2.38110980E+00  2.41517991E+00  2.42283243E+00  2.50380288E+00  2.56636184E+00
  2.66131584E+00  2.68600370E+00  2.73164360E+00  2.81842287E+00  2.84903773E+00
  2.87904829E+00  2.91936649E+00  2.94537565E+00  2.98602112E+00  3.01504755E+00
  3.04806804E+00  3.05905253E+00  3.06644877E+00  3.07391825E+00  3.17172329E+00
  3.19270527E+00  3.20731731E+00  3.26501845E+00  3.35555792E+00  3.37718681E+00
  3.46264407E+00  3.49096792E+00  3.52913271E+00  3.65194363E+00  3.68080482E+00
  3.77554971E+00  3.89395536E+00  3.91176208E+00  4.34018878E+00  4.38718405E+00
  4.44944492E+00  4.45164193E+00  4.45555974E+00  4.86310245E+00  5.04459958E+00
  5.39790692E+00  2.48139102E+01  2.49470815E+01  2.50743158E+01  2.53786705E+01
  2.54049105E+01  3.71124146E+01
Alpha MO coefficients                      R   N=       27889
  3.99814416E-05 -5.92854351E-05  1.21315639E-05  1.21950612E-04  0.00000000E+00
  4.09436858E-04 -3.37912824E-05  3.97373985E-04  0.00000000E+00  1.43324568E-04
  4.76582506E-04  1.31797487E-03  0.00000000E+00 -6.07614466E-03 -3.63922771E-03
  7.45261096E-04  0.00000000E+00 -1.13083377E-05  0.00000000E+00  0.00000000E+00
 -2.10430007E-04 -9.84630500E-05  1.18811099E-06  1.29125921E-07 -2.03074707E-05
 -2.00519580E-05  0.00000000E+00 -3.29397093E-05  1.05641009E-04  8.32951045E-05
  0.00000000E+00  1.02842364E-03  6.47137164E-04 -3.05818943E-04  0.00000000E+00
 -1.82259667E-03 -9.46724530E-05 -1.21946607E-03  0.00000000E+00 -8.25538833E-06
  0.00000000E+00  0.00000000E+00  4.69174187E-06  5.73303539E-05 -1.02031510E-05
  1.67096528E-04  2.44329361E-04  1.70938361E-04  3.82048737E-05  2.68612628E-06
  0.00000000E+00  5.37578379E-08 -3.04496109E-06  6.91233736E-07  2.61757802E-06
  0.00000000E+00  1.96273826E-05 -6.80851321E-06  8.03748061E-06  0.00000000E+00
 -7.20230336E-04 -1.82751946E-05 -2.32769335E-04  0.00000000E+00  1.43411210E-03
  8.71354854E-04  3.68979415E-06  0.00000000E+00 -4.39423300E-06  0.00000000E+00
  0.00000000E+00 -1.07113149E-05 -1.08545698E-05 -2.19714900E-06  2.29199999E-05
 -1.98756196E-05  1.04394064E-04 -2.39346682E-06  1.03354712E-05  0.00000000E+00
  4.81743466E-07  1.05104074E-06  9.57099107E-06 -1.85360965E-05  0.00000000E+00
  2.03580526E-06 -4.71572124E-05  5.70130203E-05  0.00000000E+00  1.15620630E-04
 -2.71989987E-04 -5.00813233E-04  0.00000000E+00  9.83747686E-03 -2.36748231E-03
  7.35458539E-04  0.00000000E+00  6.28266063E-06  0.00000000E+00  0.00000000E+00
 -2.63427700E-05 -3.15461447E-05 -4.70465186E-06  1.53615720E-04  9.23623685E-05
  5.99494204E-04 -2.43074360E-05 -1.20666153E-05  0.00000000E+00 -3.27428114E-07
 -1.05860092E-06  4.23064904E-06 -2.29628537E-06  0.00000000E+00 -1.46577469E-05
 -1.98130051E-05  1.41392851E-05  0.00000000E+00 -2.34002495E-04 -2.10362517E-04
 -3.64426721E-05  0.00000000E+00 -5.00793027E-03  1.04435137E-03 -8.15987754E-04
  0.00000000E+00 -1.18002786E-05  0.00000000E+00  0.00000000E+00 -7.60776504E-06
 -5.87459734E-06 -8.30265120E-06  5.63754417E-05  4.51519786E-05 -2.38320133E-04
  4.45139176E-06  8.68633257E-06  0.00000000E+00  5.57719855E-01  4.68310169E-01
 -1.76832042E-03 -1.20247788E-03  0.00000000E+00  4.67792570E-03  8.87146412E-04
  4.14595487E-04  0.00000000E+00 -1.96227500E-03 -3.95338436E-04  2.54481379E-04
  0.00000000E+00  1.54258211E-03  6.54444995E-04 -2.14104051E-04  0.00000000E+00
 -1.93869881E-04  0.00000000E+00  0.00000000E+00 -4.77507747E-05  8.94192165E-05
  2.93352819E-04  2.82300853E-04 -1.05570236E-04 -6.75666917E-05  1.73847873E-04
 -1.41712910E-04  0.00000000E+00  5.63377725E-01  4.66562533E-01 -5.06478384E-06
 -3.38977349E-05  0.00000000E+00  4.10199661E-03 -1.12830226E-05  4.11243812E-04
  0.00000000E+00 -6.99810032E-04  5.20654841E-05  1.57964742E-03  0.00000000E+00
 -5.80491535E-03  3.54486292E-03 -8.85284509E-05  0.00000000E+00 -4.03447210E-04
  0.00000000E+00  0.00000000E+00 -4.21238057E-04  1.78714648E-05  3.92286027E-03
  3.19269773E-03  1.08205282E-04  6.79711264E-05  0.00000000E+00  2.81413968E-04
  2.46375868E-04  3.00655256E-04  0.00000000E+00  7.77228693E-04  7.03043505E-04
 -4.25999521E-04  0.00000000E+00  9.25855330E-03  2.10106363E-03  1.05668585E-03
  0.00000000E+00  1.04880856E-05  0.00000000E+00  0.00000000E+00 -6.89951980E-05
  1.97883321E-04  6.90592209E-06  2.56879650E-04  1.51891952E-04  2.29940948E-04
  7.58670988E-05 -1.43217808E-05  0.00000000E+00 -3.14763672E-06 -1.15149341E-05
 -8.21473599E-06 -7.85196996E-06  0.00000000E+00  4.21346262E-05  2.84325506E-05
  7.08528227E-05  0.00000000E+00 -5.98684780E-04  5.26059900E-06 -2.95419202E-04
  0.00000000E+00 -5.06779986E-03 -1.29190326E-03 -9.51445219E-04  0.00000000E+00
 -7.78508807E-06  0.00000000E+00  0.00000000E+00 -4.03920845E-05 -2.75022327E-07
  7.06217177E-07  2.55616310E-05 -8.33257799E-05 -2.74104722E-04 -7.11466967E-06
  1.91983178E-05  0.00000000E+00  3.71514442E-03  3.01776842E-03 -1.08977433E-04
  6.44379096E-05  0.00000000E+00  2.88328254E-04 -2.71979920E-04  3.22459300E-04
  0.00000000E+00  6.58606230E-04 -5.84797829E-04 -4.62438073E-04  0.00000000E+00
 -2.91423010E-03  1.03548881E-04 -9.07312384E-04  0.00000000E+00  6.64523701E-06
  0.00000000E+00  0.00000000E+00 -3.24374275E-05 -2.14166489E-04  1.37985747E-05
  2.07748556E-04  2.90486591E-04  2.81107049E-04 -7.21052443E-05 -1.04388107E-05
  0.00000000E+00 -8.72834699E-06 -1.64789178E-05  6.56903287E-06 -6.67504953E-06
  0.00000000E+00  4.39836176E-05 -2.10421205E-05  8.01155615E-05  0.00000000E+00
 -5.08935620E-04 -1.14368925E-04 -1.54910240E-04  0.00000000E+00  2.53352321E-03
 -7.53503367E-04  1.19005009E-04  0.00000000E+00 -6.91413032E-06  0.00000000E+00
  0.00000000E+00 -4.47620731E-05  1.19397967E-05 -1.68803977E-06  7.66461255E-05
 -2.13559007E-05  3.99331393E-05  2.83623674E-06  2.77593218E-05  0.00000000E+00
 -2.26248303E-04 -2.92129930E-04 -2.84671442E-05 -2.73387230E-04  0.00000000E+00
  5.41455478E-04  4.95977326E-05 -2.39926046E-04  0.00000000E+00 -1.78996279E-03
  1.66492870E-04  5.87088826E-04  0.00000000E+00  2.14592256E-03 -7.20162794E-04
 -5.67875423E-04  0.00000000E+00  6.71294803E-05  0.00000000E+00  0.00000000E+00
 -1.23507810E-04  5.72956376E-05  2.10831053E-05  2.46149650E-04 -5.28657772E-04
  5.22649466E-04  8.21390462E-05 -6.78936022E-05  0.00000000E+00 -2.00004332E-04
 -1.76114176E-04 -9.64587680E-06  3.02435992E-06  0.00000000E+00  5.24572526E-05
  5.06577347E-06 -4.50558364E-05  0.00000000E+00 -3.32882530E-05  4.34583486E-06
 -2.44526573E-04  0.00000000E+00 -2.11619676E-03  1.12183905E-03  2.05428201E-04
  0.00000000E+00  2.17781106E-06  0.00000000E+00  0.00000000E+00 -6.49589175E-06
  1.09405712E-05  2.82571058E-02  2.33599860E-02  1.01849401E-04 -2.35193824E-04
  0.00000000E+00  4.23135737E-04 -1.39726832E-04  1.13585352E-04  0.00000000E+00
 -2.53411640E-04  3.96106227E-05 -9.72382707E-05  0.00000000E+00  8.33987189E-04