Penta-CH2                                                               
SP        RMP2-FC                                                     6-311++G(d,p)       
Number of atoms                            I               12
Info1-9                                    I   N=           9
          29          21           0           0           0         110
           1           2           1
Charge                                     I                0
Multiplicity                               I                1
Number of electrons                        I               42
Number of alpha electrons                  I               21
Number of beta electrons                   I               21
Number of basis functions                  I              174
Number of independent functions            I              174
Number of point charges in /Mol/           I                0
Number of translation vectors              I                0
Atomic numbers                             I   N=          12
           6           6           1           6           1           6
           1           6           1           6           1           1
Nuclear charges                            R   N=          12
  6.00000000E+00  6.00000000E+00  1.00000000E+00  6.00000000E+00  1.00000000E+00
  6.00000000E+00  1.00000000E+00  6.00000000E+00  1.00000000E+00  6.00000000E+00
  1.00000000E+00  1.00000000E+00
Current cartesian coordinates              R   N=          36
  2.59335125E-16  1.43610871E+00  0.00000000E+00 -2.22670210E+00 -2.37404404E-01
  0.00000000E+00 -4.16298541E+00  4.11495424E-01  0.00000000E+00 -1.39322138E+00
 -2.65256889E+00  0.00000000E+00 -2.55178035E+00 -4.33679108E+00  0.00000000E+00
  2.22670399E+00 -2.37396845E-01  0.00000000E+00  4.16298352E+00  4.11506763E-01
  0.00000000E+00  1.39322894E+00 -2.65256511E+00  0.00000000E+00  2.55179735E+00
 -4.33678352E+00  0.00000000E+00 -9.44863066E-06  3.97187741E+00  0.00000000E+00
 -1.74833871E+00  5.04112792E+00  0.00000000E+00  1.74831037E+00  5.04114304E+00
  0.00000000E+00
Force Field                                I                0
Int Atom Types                             I   N=          12
           0           0           0           0           0           0
           0           0           0           0           0           0
MM charges                                 R   N=          12
  0.00000000E+00  0.00000000E+00  0.00000000E+00  0.00000000E+00  0.00000000E+00
  0.00000000E+00  0.00000000E+00  0.00000000E+00  0.00000000E+00  0.00000000E+00
  0.00000000E+00  0.00000000E+00
Integer atomic weights                     I   N=          12
          12          12           1          12           1          12
           1          12           1          12           1           1
Real atomic weights                        R   N=          12
  1.20000000E+01  1.20000000E+01  1.00782504E+00  1.20000000E+01  1.00782504E+00
  1.20000000E+01  1.00782504E+00  1.20000000E+01  1.00782504E+00  1.20000000E+01
  1.00782504E+00  1.00782504E+00
Atom fragment info                         I   N=          12
           0           0           0           0           0           0
           0           0           0           0           0           0
Atom residue num                           I   N=          12
           0           0           0           0           0           0
           0           0           0           0           0           0
Nuclear spins                              I   N=          12
           0           0           1           0           1           0
           1           0           1           0           1           1
Nuclear ZEff                               R   N=          12
 -3.60000000E+00 -3.60000000E+00 -1.00000000E+00 -3.60000000E+00 -1.00000000E+00
 -3.60000000E+00 -1.00000000E+00 -3.60000000E+00 -1.00000000E+00 -3.60000000E+00
 -1.00000000E+00 -1.00000000E+00
Nuclear QMom                               R   N=          12
  0.00000000E+00  0.00000000E+00  0.00000000E+00  0.00000000E+00  0.00000000E+00
  0.00000000E+00  0.00000000E+00  0.00000000E+00  0.00000000E+00  0.00000000E+00
  0.00000000E+00  0.00000000E+00
Nuclear GFac                               R   N=          12
  0.00000000E+00  0.00000000E+00  2.79284600E+00  0.00000000E+00  2.79284600E+00
  0.00000000E+00  2.79284600E+00  0.00000000E+00  2.79284600E+00  0.00000000E+00
  2.79284600E+00  2.79284600E+00
MicOpt                                     I   N=          12
          -1          -1          -1          -1          -1          -1
          -1          -1          -1          -1          -1          -1
Number of contracted shells                I               66
Number of primitive shells                 I              120
Pure/Cartesian d shells                    I                0
Pure/Cartesian f shells                    I                0
Highest angular momentum                   I                2
Largest degree of contraction              I                6
Shell types                                I   N=          66
           0          -1          -1          -1          -1          -2
           0          -1          -1          -1          -1          -2
           0           0           0           0           1           0
          -1          -1          -1          -1          -2           0
           0           0           0           1           0          -1
          -1          -1          -1          -2           0           0
           0           0           1           0          -1          -1
          -1          -1          -2           0           0           0
           0           1           0          -1          -1          -1
          -1          -2           0           0           0           0
           1           0           0           0           0           1
Number of primitives per shell             I   N=          66
           6           3           1           1           1           1
           6           3           1           1           1           1
           3           1           1           1           1           6
           3           1           1           1           1           3
           1           1           1           1           6           3
           1           1           1           1           3           1
           1           1           1           6           3           1
           1           1           1           3           1           1
           1           1           6           3           1           1
           1           1           3           1           1           1
           1           3           1           1           1           1
Shell to atom map                          I   N=          66
           1           1           1           1           1           1
           2           2           2           2           2           2
           3           3           3           3           3           4
           4           4           4           4           4           5
           5           5           5           5           6           6
           6           6           6           6           7           7
           7           7           7           8           8           8
           8           8           8           9           9           9
           9           9          10          10          10          10
          10          10          11          11          11          11
          11          12          12          12          12          12
Primitive exponents                        R   N=         120
  4.56324000E+03  6.82024000E+02  1.54973000E+02  4.44553000E+01  1.30290000E+01
  1.82773000E+00  2.09642000E+01  4.80331000E+00  1.45933000E+00  4.83456000E-01
  1.45585000E-01  4.38000000E-02  6.26000000E-01  4.56324000E+03  6.82024000E+02
  1.54973000E+02  4.44553000E+01  1.30290000E+01  1.82773000E+00  2.09642000E+01
  4.80331000E+00  1.45933000E+00  4.83456000E-01  1.45585000E-01  4.38000000E-02
  6.26000000E-01  3.38650000E+01  5.09479000E+00  1.15879000E+00  3.25840000E-01
  1.02741000E-01  3.60000000E-02  7.50000000E-01  4.56324000E+03  6.82024000E+02
  1.54973000E+02  4.44553000E+01  1.30290000E+01  1.82773000E+00  2.09642000E+01
  4.80331000E+00  1.45933000E+00  4.83456000E-01  1.45585000E-01  4.38000000E-02
  6.26000000E-01  3.38650000E+01  5.09479000E+00  1.15879000E+00  3.25840000E-01
  1.02741000E-01  3.60000000E-02  7.50000000E-01  4.56324000E+03  6.82024000E+02
  1.54973000E+02  4.44553000E+01  1.30290000E+01  1.82773000E+00  2.09642000E+01
  4.80331000E+00  1.45933000E+00  4.83456000E-01  1.45585000E-01  4.38000000E-02
  6.26000000E-01  3.38650000E+01  5.09479000E+00  1.15879000E+00  3.25840000E-01
  1.02741000E-01  3.60000000E-02  7.50000000E-01  4.56324000E+03  6.82024000E+02
  1.54973000E+02  4.44553000E+01  1.30290000E+01  1.82773000E+00  2.09642000E+01
  4.80331000E+00  1.45933000E+00  4.83456000E-01  1.45585000E-01  4.38000000E-02
  6.26000000E-01  3.38650000E+01  5.09479000E+00  1.15879000E+00  3.25840000E-01
  1.02741000E-01  3.60000000E-02  7.50000000E-01  4.56324000E+03  6.82024000E+02
  1.54973000E+02  4.44553000E+01  1.30290000E+01  1.82773000E+00  2.09642000E+01
  4.80331000E+00  1.45933000E+00  4.83456000E-01  1.45585000E-01  4.38000000E-02
  6.26000000E-01  3.38650000E+01  5.09479000E+00  1.15879000E+00  3.25840000E-01
  1.02741000E-01  3.60000000E-02  7.50000000E-01  3.38650000E+01  5.09479000E+00
  1.15879000E+00  3.25840000E-01  1.02741000E-01  3.60000000E-02  7.50000000E-01
Contraction coefficients                   R   N=         120
  1.96665025E-03  1.52306019E-02  7.61269097E-02  2.60801033E-01  6.16462078E-01
  2.21006028E-01  1.14660081E-01  9.19999648E-01 -3.03068213E-03  1.00000000E+00
  1.00000000E+00  1.00000000E+00  1.00000000E+00  1.96665025E-03  1.52306019E-02
  7.61269097E-02  2.60801033E-01  6.16462078E-01  2.21006028E-01  1.14660081E-01
  9.19999648E-01 -3.03068213E-03  1.00000000E+00  1.00000000E+00  1.00000000E+00
  1.00000000E+00  2.54938145E-02  1.90373109E-01  8.52161486E-01  1.00000000E+00
  1.00000000E+00  1.00000000E+00  1.00000000E+00  1.96665025E-03  1.52306019E-02
  7.61269097E-02  2.60801033E-01  6.16462078E-01  2.21006028E-01  1.14660081E-01
  9.19999648E-01 -3.03068213E-03  1.00000000E+00  1.00000000E+00  1.00000000E+00
  1.00000000E+00  2.54938145E-02  1.90373109E-01  8.52161486E-01  1.00000000E+00
  1.00000000E+00  1.00000000E+00  1.00000000E+00  1.96665025E-03  1.52306019E-02
  7.61269097E-02  2.60801033E-01  6.16462078E-01  2.21006028E-01  1.14660081E-01
  9.19999648E-01 -3.03068213E-03  1.00000000E+00  1.00000000E+00  1.00000000E+00
  1.00000000E+00  2.54938145E-02  1.90373109E-01  8.52161486E-01  1.00000000E+00
  1.00000000E+00  1.00000000E+00  1.00000000E+00  1.96665025E-03  1.52306019E-02
  7.61269097E-02  2.60801033E-01  6.16462078E-01  2.21006028E-01  1.14660081E-01
  9.19999648E-01 -3.03068213E-03  1.00000000E+00  1.00000000E+00  1.00000000E+00
  1.00000000E+00  2.54938145E-02  1.90373109E-01  8.52161486E-01  1.00000000E+00
  1.00000000E+00  1.00000000E+00  1.00000000E+00  1.96665025E-03  1.52306019E-02
  7.61269097E-02  2.60801033E-01  6.16462078E-01  2.21006028E-01  1.14660081E-01
  9.19999648E-01 -3.03068213E-03  1.00000000E+00  1.00000000E+00  1.00000000E+00
  1.00000000E+00  2.54938145E-02  1.90373109E-01  8.52161486E-01  1.00000000E+00
  1.00000000E+00  1.00000000E+00  1.00000000E+00  2.54938145E-02  1.90373109E-01
  8.52161486E-01  1.00000000E+00  1.00000000E+00  1.00000000E+00  1.00000000E+00
P(S=P) Contraction coefficients            R   N=         120
  0.00000000E+00  0.00000000E+00  0.00000000E+00  0.00000000E+00  0.00000000E+00
  0.00000000E+00  4.02486927E-02  2.37593957E-01  8.15853851E-01  1.00000000E+00
  1.00000000E+00  1.00000000E+00  0.00000000E+00  0.00000000E+00  0.00000000E+00
  0.00000000E+00  0.00000000E+00  0.00000000E+00  0.00000000E+00  4.02486927E-02
  2.37593957E-01  8.15853851E-01  1.00000000E+00  1.00000000E+00  1.00000000E+00
  0.00000000E+00  0.00000000E+00  0.00000000E+00  0.00000000E+00  0.00000000E+00
  0.00000000E+00  0.00000000E+00  0.00000000E+00  0.00000000E+00  0.00000000E+00
  0.00000000E+00  0.00000000E+00  0.00000000E+00  0.00000000E+00  4.02486927E-02
  2.37593957E-01  8.15853851E-01  1.00000000E+00  1.00000000E+00  1.00000000E+00
  0.00000000E+00  0.00000000E+00  0.00000000E+00  0.00000000E+00  0.00000000E+00
  0.00000000E+00  0.00000000E+00  0.00000000E+00  0.00000000E+00  0.00000000E+00
  0.00000000E+00  0.00000000E+00  0.00000000E+00  0.00000000E+00  4.02486927E-02
  2.37593957E-01  8.15853851E-01  1.00000000E+00  1.00000000E+00  1.00000000E+00
  0.00000000E+00  0.00000000E+00  0.00000000E+00  0.00000000E+00  0.00000000E+00
  0.00000000E+00  0.00000000E+00  0.00000000E+00  0.00000000E+00  0.00000000E+00
  0.00000000E+00  0.00000000E+00  0.00000000E+00  0.00000000E+00  4.02486927E-02
  2.37593957E-01  8.15853851E-01  1.00000000E+00  1.00000000E+00  1.00000000E+00
  0.00000000E+00  0.00000000E+00  0.00000000E+00  0.00000000E+00  0.00000000E+00
  0.00000000E+00  0.00000000E+00  0.00000000E+00  0.00000000E+00  0.00000000E+00
  0.00000000E+00  0.00000000E+00  0.00000000E+00  0.00000000E+00  4.02486927E-02
  2.37593957E-01  8.15853851E-01  1.00000000E+00  1.00000000E+00  1.00000000E+00
  0.00000000E+00  0.00000000E+00  0.00000000E+00  0.00000000E+00  0.00000000E+00
  0.00000000E+00  0.00000000E+00  0.00000000E+00  0.00000000E+00  0.00000000E+00
  0.00000000E+00  0.00000000E+00  0.00000000E+00  0.00000000E+00  0.00000000E+00
Coordinates of each shell                  R   N=         198
  0.00000000E+00  1.43610862E+00  0.00000000E+00  0.00000000E+00  1.43610862E+00
  0.00000000E+00  0.00000000E+00  1.43610862E+00  0.00000000E+00  0.00000000E+00
  1.43610862E+00  0.00000000E+00  0.00000000E+00  1.43610862E+00  0.00000000E+00
  0.00000000E+00  1.43610862E+00  0.00000000E+00 -2.22670173E+00 -2.37404983E-01
  0.00000000E+00 -2.22670173E+00 -2.37404983E-01  0.00000000E+00 -2.22670173E+00
 -2.37404983E-01  0.00000000E+00 -2.22670173E+00 -2.37404983E-01  0.00000000E+00
 -2.22670173E+00 -2.37404983E-01  0.00000000E+00 -2.22670173E+00 -2.37404983E-01
  0.00000000E+00 -4.16298519E+00  4.11494421E-01  0.00000000E+00 -4.16298519E+00
  4.11494421E-01  0.00000000E+00 -4.16298519E+00  4.11494421E-01  0.00000000E+00
 -4.16298519E+00  4.11494421E-01  0.00000000E+00 -4.16298519E+00  4.11494421E-01
  0.00000000E+00 -1.39322048E+00 -2.65256928E+00  0.00000000E+00 -1.39322048E+00
 -2.65256928E+00  0.00000000E+00 -1.39322048E+00 -2.65256928E+00  0.00000000E+00
 -1.39322048E+00 -2.65256928E+00  0.00000000E+00 -1.39322048E+00 -2.65256928E+00
  0.00000000E+00 -1.39322048E+00 -2.65256928E+00  0.00000000E+00 -2.55177908E+00
 -4.33679173E+00  0.00000000E+00 -2.55177908E+00 -4.33679173E+00  0.00000000E+00
 -2.55177908E+00 -4.33679173E+00  0.00000000E+00 -2.55177908E+00 -4.33679173E+00
  0.00000000E+00 -2.55177908E+00 -4.33679173E+00  0.00000000E+00  2.22670435E+00
 -2.37396447E-01  0.00000000E+00  2.22670435E+00 -2.37396447E-01  0.00000000E+00
  2.22670435E+00 -2.37396447E-01  0.00000000E+00  2.22670435E+00 -2.37396447E-01
  0.00000000E+00  2.22670435E+00 -2.37396447E-01  0.00000000E+00  2.22670435E+00
 -2.37396447E-01  0.00000000E+00  4.16298375E+00  4.11507586E-01  0.00000000E+00
  4.16298375E+00  4.11507586E-01  0.00000000E+00  4.16298375E+00  4.11507586E-01
  0.00000000E+00  4.16298375E+00  4.11507586E-01  0.00000000E+00  4.16298375E+00
  4.11507586E-01  0.00000000E+00  1.39322983E+00 -2.65256489E+00  0.00000000E+00
  1.39322983E+00 -2.65256489E+00  0.00000000E+00  1.39322983E+00 -2.65256489E+00
  0.00000000E+00  1.39322983E+00 -2.65256489E+00  0.00000000E+00  1.39322983E+00
 -2.65256489E+00  0.00000000E+00  1.39322983E+00 -2.65256489E+00  0.00000000E+00
  2.55179862E+00 -4.33678306E+00  0.00000000E+00  2.55179862E+00 -4.33678306E+00
  0.00000000E+00  2.55179862E+00 -4.33678306E+00  0.00000000E+00  2.55179862E+00
 -4.33678306E+00  0.00000000E+00  2.55179862E+00 -4.33678306E+00  0.00000000E+00
 -1.00047525E-05  3.97187732E+00  0.00000000E+00 -1.00047525E-05  3.97187732E+00
  0.00000000E+00 -1.00047525E-05  3.97187732E+00  0.00000000E+00 -1.00047525E-05
  3.97187732E+00  0.00000000E+00 -1.00047525E-05  3.97187732E+00  0.00000000E+00
 -1.00047525E-05  3.97187732E+00  0.00000000E+00 -1.74833950E+00  5.04112744E+00
  0.00000000E+00 -1.74833950E+00  5.04112744E+00  0.00000000E+00 -1.74833950E+00
  5.04112744E+00  0.00000000E+00 -1.74833950E+00  5.04112744E+00  0.00000000E+00
 -1.74833950E+00  5.04112744E+00  0.00000000E+00  1.74830958E+00  5.04114333E+00
  0.00000000E+00  1.74830958E+00  5.04114333E+00  0.00000000E+00  1.74830958E+00
  5.04114333E+00  0.00000000E+00  1.74830958E+00  5.04114333E+00  0.00000000E+00
  1.74830958E+00  5.04114333E+00  0.00000000E+00
Constraint Structure                       R   N=          36
  0.00000000E+00  1.43610862E+00  0.00000000E+00 -2.22670173E+00 -2.37404983E-01
  0.00000000E+00 -4.16298519E+00  4.11494421E-01  0.00000000E+00 -1.39322048E+00
 -2.65256928E+00  0.00000000E+00 -2.55177908E+00 -4.33679173E+00  0.00000000E+00
  2.22670435E+00 -2.37396447E-01  0.00000000E+00  4.16298375E+00  4.11507586E-01
  0.00000000E+00  1.39322983E+00 -2.65256489E+00  0.00000000E+00  2.55179862E+00
 -4.33678306E+00  0.00000000E+00 -1.00047525E-05  3.97187732E+00  0.00000000E+00
 -1.74833950E+00  5.04112744E+00  0.00000000E+00  1.74830958E+00  5.04114333E+00
  0.00000000E+00
Num ILSW                                   I              100
ILSW                                       I   N=         100
           0           0           0           0           2           0
           0           0           0           0           0          -1
           0           0           0           0           0           0
           0           0           0           0           0           0
           1           0           0           0           0           0
           0           0      100000           0          -1           0
           0           0           0           0           0           0
           0           0           0           1           0           0
           0           0           1           0           0           0
           0           0           4          40           0           0
           0           0           0           0           0           0
           0           0           0           0           0           0
           0           0           0           0           0           0
           0           0           0           0           0           0
           0           0           0           0           0           0
           0           0           0           0           0           0
           0           0           0           0
Num RLSW                                   I               40
RLSW                                       R   N=          40
  1.00000000E+00  1.00000000E+00  1.00000000E+00  1.00000000E+00  1.00000000E+00
  0.00000000E+00  0.00000000E+00  1.00000000E+00  0.00000000E+00  0.00000000E+00
  0.00000000E+00  0.00000000E+00  1.00000000E+00  0.00000000E+00  0.00000000E+00
  0.00000000E+00  0.00000000E+00  1.00000000E+00  0.00000000E+00  0.00000000E+00
  0.00000000E+00  0.00000000E+00  1.00000000E+00  0.00000000E+00  0.00000000E+00
  0.00000000E+00  0.00000000E+00  1.00000000E+00  0.00000000E+00  0.00000000E+00
  0.00000000E+00  0.00000000E+00  0.00000000E+00  0.00000000E+00  0.00000000E+00
  0.00000000E+00  0.00000000E+00  0.00000000E+00  1.00000000E+00  1.00000000E+00
MxBond                                     I                3
NBond                                      I   N=          12
           3           3           1           3           1           3
           1           3           1           3           1           1
IBond                                      I   N=          36
           2           6          10           1           3           4
           2           0           0           2           5           8
           4           0           0           1           7           8
           6           0           0           4           6           9
           8           0           0           1          11          12
          10           0           0          10           0           0
RBond                                      R   N=          36
  1.00000000E+00  1.00000000E+00  2.00000000E+00  1.00000000E+00  1.00000000E+00
  2.00000000E+00  1.00000000E+00  0.00000000E+00  0.00000000E+00  2.00000000E+00
  1.00000000E+00  1.00000000E+00  1.00000000E+00  0.00000000E+00  0.00000000E+00
  1.00000000E+00  1.00000000E+00  2.00000000E+00  1.00000000E+00  0.00000000E+00
  0.00000000E+00  1.00000000E+00  2.00000000E+00  1.00000000E+00  1.00000000E+00
  0.00000000E+00  0.00000000E+00  2.00000000E+00  1.00000000E+00  1.00000000E+00
  1.00000000E+00  0.00000000E+00  0.00000000E+00  1.00000000E+00  0.00000000E+00
  0.00000000E+00
Virial Ratio                               R      2.001266739652014E+00
SCF Energy                                 R     -2.306994054695895E+02
MP2 Energy                                 R     -2.315267525193828E+02
Total Energy                               R     -2.315267525193828E+02
Post-SCF wavefunction norm                 R      1.143491390669429E+00
RMS Density                                R      3.778327181478511E-09
External E-field                           R   N=          35
  0.00000000E+00  0.00000000E+00  0.00000000E+00  0.00000000E+00  0.00000000E+00
  0.00000000E+00  0.00000000E+00  0.00000000E+00  0.00000000E+00  0.00000000E+00
  0.00000000E+00  0.00000000E+00  0.00000000E+00  0.00000000E+00  0.00000000E+00
  0.00000000E+00  0.00000000E+00  0.00000000E+00  0.00000000E+00  0.00000000E+00
  0.00000000E+00  0.00000000E+00  0.00000000E+00  0.00000000E+00  0.00000000E+00
  0.00000000E+00  0.00000000E+00  0.00000000E+00  0.00000000E+00  0.00000000E+00
  0.00000000E+00  0.00000000E+00  0.00000000E+00  0.00000000E+00  0.00000000E+00
IOpCl                                      I                0
IROHF                                      I                0
Alpha Orbital Energies                     R   N=         174
 -1.12522706E+01 -1.12470999E+01 -1.12357071E+01 -1.12349402E+01 -1.12294409E+01
 -1.12294113E+01 -1.16470190E+00 -1.02875029E+00 -9.71470928E-01 -8.62079050E-01
 -7.45048890E-01 -7.27947886E-01 -6.89296272E-01 -6.09417150E-01 -5.67056463E-01
 -5.58070141E-01 -5.22307017E-01 -5.02520350E-01 -4.91848706E-01 -3.45359569E-01
 -3.10175566E-01  3.97103511E-02  4.92474530E-02  5.01003483E-02  5.46359433E-02
  6.52550345E-02  7.08068897E-02  8.99209950E-02  1.09800917E-01  1.31683940E-01
  1.40088621E-01  1.44412178E-01  1.52611787E-01  1.61314706E-01  1.70342683E-01
  1.73687116E-01  1.82961738E-01  1.85497846E-01  1.93867915E-01  1.96239490E-01
  2.02432632E-01  2.09964831E-01  2.18160244E-01  2.20075252E-01  2.21387676E-01
  2.34074779E-01  2.52351075E-01  2.64578461E-01  2.79059754E-01  2.89458784E-01
  2.96179548E-01  2.96648352E-01  3.14012051E-01  3.30202367E-01  3.31515200E-01
  3.68210410E-01  3.71882950E-01  4.18568970E-01  4.24847620E-01  4.35934686E-01
  4.57678274E-01  4.70184453E-01  5.34831614E-01  5.63520715E-01  5.70070013E-01
  6.13849498E-01  6.47188180E-01  6.88543203E-01  7.12205068E-01  7.24714167E-01
  7.33728979E-01  7.38141659E-01  7.52704709E-01  7.55571585E-01  7.91864539E-01
  8.20575485E-01  8.40648522E-01  8.60134266E-01  8.89824090E-01  9.15757612E-01
  9.42657915E-01  9.56127625E-01  9.78435293E-01  1.00288129E+00  1.01294804E+00
  1.01309472E+00  1.02365945E+00  1.02927652E+00  1.07657756E+00  1.08797299E+00
  1.10976723E+00  1.14423281E+00  1.15745700E+00  1.18321165E+00  1.20257793E+00
  1.23856247E+00  1.25795473E+00  1.32614971E+00  1.32734163E+00  1.35514951E+00
  1.37296195E+00  1.37481417E+00  1.54907173E+00  1.66451770E+00  1.71096211E+00
  1.77258955E+00  1.79938631E+00  1.80800313E+00  1.81523116E+00  1.83426424E+00
  1.85874739E+00  1.90074456E+00  1.92038789E+00  1.96100939E+00  1.99212717E+00
  2.00665040E+00  2.01586773E+00  2.11039369E+00  2.11488240E+00  2.14282791E+00
  2.16460725E+00  2.18176192E+00  2.22355230E+00  2.24655120E+00  2.25972665E+00
  2.27490139E+00  2.28141456E+00  2.42481193E+00  2.46513928E+00  2.54479788E+00
  2.57282973E+00  2.58403520E+00  2.61023030E+00  2.63937064E+00  2.66564815E+00
  2.78719012E+00  2.84087769E+00  2.87750826E+00  2.90749455E+00  2.97111254E+00
  2.97637718E+00  2.99949451E+00  3.03244863E+00  3.04018994E+00  3.06821119E+00
  3.07391848E+00  3.08206580E+00  3.08402726E+00  3.14575535E+00  3.19089967E+00
  3.29203318E+00  3.39290456E+00  3.40034430E+00  3.43579878E+00  3.52756633E+00
  3.53936973E+00  3.63254039E+00  3.78864896E+00  3.80000169E+00  3.90677761E+00
  3.95132794E+00  4.07191072E+00  4.16350513E+00  4.47548649E+00  4.47644720E+00
  4.48604735E+00  4.77533516E+00  5.07605372E+00  2.47875208E+01  2.49689767E+01
  2.49934344E+01  2.53767541E+01  2.53789434E+01  2.53916382E+01
Alpha MO coefficients                      R   N=       30276
  8.94462716E-02  7.40296145E-02 -1.30361784E-09  2.30639837E-04  0.00000000E+00
  9.08157491E-04  2.03553810E-09 -7.44759226E-05  0.00000000E+00 -3.99875716E-04
  7.94945568E-10 -4.80665592E-04  0.00000000E+00  1.33206347E-02 -4.85184388E-08
 -2.34629065E-04  0.00000000E+00  6.20960441E-05  0.00000000E+00  0.00000000E+00
 -5.98114204E-05 -1.01035037E-09  1.43634602E-03  1.18022588E-03  2.37368335E-05
  3.72781978E-07  0.00000000E+00  6.53915506E-05  3.56854343E-06  6.47186035E-05
  0.00000000E+00 -2.26065144E-04 -2.13527902E-04  5.91901714E-05  0.00000000E+00
 -6.18234200E-03 -1.62353483E-03 -2.38649578E-04  0.00000000E+00  5.99312695E-06
  0.00000000E+00  0.00000000E+00 -3.94512992E-05  2.39894879E-05  8.77695839E-06
 -4.37892034E-05 -8.88399628E-05 -2.89656460E-04 -3.41365043E-06 -8.14090412E-06
  0.00000000E+00 -1.35895003E-05 -1.42868910E-05 -3.87941977E-06 -3.08895133E-06
  0.00000000E+00  1.42803095E-05  1.49256642E-05  2.73930460E-05  0.00000000E+00
  1.60322177E-04 -3.57118312E-05  4.74325768E-05  0.00000000E+00  1.95931857E-03
  2.30734743E-04  4.79359031E-04  0.00000000E+00 -1.40830088E-06  0.00000000E+00
  0.00000000E+00 -1.54484740E-05  4.22001317E-06  1.81131651E-07 -1.82641496E-06
 -2.82769629E-05  3.93981221E-05 -9.93516645E-07  1.06552702E-06  0.00000000E+00
  1.43634452E-03  1.18022469E-03 -2.37371854E-05  3.73058327E-07  0.00000000E+00
  6.53917855E-05 -3.56713130E-06  6.47168759E-05  0.00000000E+00 -2.26068946E-04
  2.13530271E-04  5.91945738E-05  0.00000000E+00 -6.18222227E-03  1.62350824E-03
 -2.38615748E-04  0.00000000E+00  5.99325340E-06  0.00000000E+00  0.00000000E+00
 -3.94514365E-05 -2.39886420E-05  8.77701669E-06 -4.37906830E-05 -8.88409851E-05
 -2.89653570E-04  3.41414808E-06 -8.14095122E-06  0.00000000E+00 -1.35900816E-05
 -1.42873179E-05  3.87951771E-06 -3.08890355E-06  0.00000000E+00  1.42799103E-05
 -1.49262834E-05  2.73924922E-05  0.00000000E+00  1.60327085E-04  3.57119969E-05
  4.74350167E-05  0.00000000E+00  1.95925693E-03 -2.30710178E-04  4.79355496E-04
  0.00000000E+00 -1.40825448E-06  0.00000000E+00  0.00000000E+00 -1.54480644E-05
 -4.22034902E-06  1.81123737E-07 -1.82649178E-06 -2.82766685E-05  3.93948378E-05
  9.93450308E-07  1.06543476E-06  0.00000000E+00  5.56162475E-01  4.60622830E-01
 -1.31063277E-09  2.83803856E-04  0.00000000E+00  4.16880367E-03  2.88700337E-09
 -6.64010450E-04  0.00000000E+00 -1.52888332E-04  9.36740376E-10 -5.69514302E-05
  0.00000000E+00 -4.46289285E-03  6.05308516E-09  8.20290414E-04  0.00000000E+00
 -4.42834783E-04  0.00000000E+00  0.00000000E+00 -3.13779550E-04 -1.99611201E-09
  4.14307229E-04 -4.50297822E-05  3.35526930E-04  9.29462859E-05  3.27136731E-05
 -4.99972407E-05  0.00000000E+00  4.14307152E-04 -4.50305116E-05  3.35526737E-04
  9.29386074E-05 -3.27127972E-05 -4.99975409E-05  0.00000000E+00  5.55907554E-01
  4.60402757E-01 -7.86509661E-10 -2.94398044E-04  0.00000000E+00  4.23406735E-03
  1.46382053E-09  6.29708648E-04  0.00000000E+00 -7.70792976E-04 -2.71574715E-09
  3.08995014E-05  0.00000000E+00  8.41285210E-03  1.91504130E-08 -5.53669406E-03
  0.00000000E+00 -4.34366006E-04  0.00000000E+00  0.00000000E+00 -4.61941257E-04
 -7.25089656E-09  1.24667138E-02  1.02622524E-02  1.19090077E-04  8.61178582E-05
  0.00000000E+00  3.92029765E-04  2.45114244E-04  2.72351198E-04  0.00000000E+00
  1.15158040E-05  6.49752609E-05 -4.74365042E-05  0.00000000E+00 -8.03724823E-03
 -1.89939248E-03  5.97236301E-04  0.00000000E+00  1.04803023E-05  0.00000000E+00
  0.00000000E+00 -4.42692237E-05  1.94987929E-04  2.69769351E-05  1.01927133E-04
 -4.57437162E-05 -4.30700806E-04  5.89139569E-05 -1.09159644E-05  0.00000000E+00
  4.59553254E-04  3.70694515E-04 -9.02109371E-06 -6.51202894E-06  0.00000000E+00
  5.59224899E-05  2.69684957E-05  8.72732084E-05  0.00000000E+00  9.48420039E-06
 -7.53788166E-05 -9.84250174E-05  0.00000000E+00  2.56816848E-03 -3.49893309E-04
  1.93372601E-04  0.00000000E+00 -2.11583620E-06  0.00000000E+00  0.00000000E+00
 -4.14338310E-05 -7.88960897E-06  3.43513195E-06  2.04356659E-05 -1.61298472E-04
 -2.27601875E-04 -1.21086030E-06  1.56005069E-05  0.00000000E+00  1.24666771E-02
  1.02622221E-02 -1.19091759E-04  8.61183715E-05  0.00000000E+00  3.92029632E-04
 -2.45110597E-04  2.72346909E-04  0.00000000E+00  1.15141036E-05 -6.49757817E-05
 -4.74330449E-05  0.00000000E+00 -8.03728612E-03  1.89939292E-03  5.97240741E-04
  0.00000000E+00  1.04810449E-05  0.00000000E+00  0.00000000E+00 -4.42702584E-05
 -1.94985746E-04  2.69771733E-05  1.01925671E-04 -4.57419347E-05 -4.30699458E-04
 -5.89132203E-05 -1.09163945E-05  0.00000000E+00  4.59560804E-04  3.70700872E-04
  9.02139759E-06 -6.51195694E-06  0.00000000E+00  5.59218096E-05 -2.69704018E-05
  8.72714897E-05  0.00000000E+00  9.48588449E-06  7.53811351E-05 -9.84226889E-05