Hepta-O                                                                 
SP        RMP2-FC                                                     6-311++G(d,p)       
Number of atoms                            I               16
Info1-9                                    I   N=           9
          27          25           0           0           0         110
           1           2           1
Charge                                     I               -1
Multiplicity                               I                1
Number of electrons                        I               56
Number of alpha electrons                  I               28
Number of beta electrons                   I               28
Number of basis functions                  I              232
Number of independent functions            I              232
Number of point charges in /Mol/           I                0
Number of translation vectors              I                0
Atomic numbers                             I   N=          16
           6           6           6           6           6           6
           6           1           1           1           1           1
           1           5           1           1
Nuclear charges                            R   N=          16
  6.00000000E+00  6.00000000E+00  6.00000000E+00  6.00000000E+00  6.00000000E+00
  6.00000000E+00  6.00000000E+00  1.00000000E+00  1.00000000E+00  1.00000000E+00
  1.00000000E+00  1.00000000E+00  1.00000000E+00  5.00000000E+00  1.00000000E+00
  1.00000000E+00
Current cartesian coordinates              R   N=          48
  1.27380958E+00 -3.54066836E+00  0.00000000E+00  2.98695215E+00 -1.35821987E+00
  0.00000000E+00 -1.27383037E+00 -3.54048128E+00  0.00000000E+00 -2.98688790E+00
 -1.35814050E+00  0.00000000E+00 -2.39550944E+00  1.14391548E+00  0.00000000E+00
  4.09689481E-16  2.51651995E+00  0.00000000E+00  2.39567007E+00  1.14375863E+00
  0.00000000E+00 -4.02678529E+00  2.40336881E+00  0.00000000E+00  4.02693458E+00
  2.40325732E+00  0.00000000E+00  4.98810409E+00 -1.83492030E+00  0.00000000E+00
  2.20093190E+00 -5.37918103E+00  0.00000000E+00 -2.20106985E+00 -5.37897316E+00
  0.00000000E+00 -4.98804173E+00 -1.83476345E+00  0.00000000E+00 -1.70075352E-05
  5.31323336E+00  0.00000000E+00 -1.95399950E+00  6.50710564E+00  0.00000000E+00
  1.95279574E+00  6.50783130E+00  0.00000000E+00
Force Field                                I                0
Int Atom Types                             I   N=          16
           0           0           0           0           0           0
           0           0           0           0           0           0
           0           0           0           0
MM charges                                 R   N=          16
  0.00000000E+00  0.00000000E+00  0.00000000E+00  0.00000000E+00  0.00000000E+00
  0.00000000E+00  0.00000000E+00  0.00000000E+00  0.00000000E+00  0.00000000E+00
  0.00000000E+00  0.00000000E+00  0.00000000E+00  0.00000000E+00  0.00000000E+00
  0.00000000E+00
Integer atomic weights                     I   N=          16
          12          12          12          12          12          12
          12           1           1           1           1           1
           1          11           1           1
Real atomic weights                        R   N=          16
  1.20000000E+01  1.20000000E+01  1.20000000E+01  1.20000000E+01  1.20000000E+01
  1.20000000E+01  1.20000000E+01  1.00782504E+00  1.00782504E+00  1.00782504E+00
  1.00782504E+00  1.00782504E+00  1.00782504E+00  1.10093053E+01  1.00782504E+00
  1.00782504E+00
Atom fragment info                         I   N=          16
           0           0           0           0           0           0
           0           0           0           0           0           0
           0           0           0           0
Atom residue num                           I   N=          16
           0           0           0           0           0           0
           0           0           0           0           0           0
           0           0           0           0
Nuclear spins                              I   N=          16
           0           0           0           0           0           0
           0           1           1           1           1           1
           1           3           1           1
Nuclear ZEff                               R   N=          16
 -3.60000000E+00 -3.60000000E+00 -3.60000000E+00 -3.60000000E+00 -3.60000000E+00
 -3.60000000E+00 -3.60000000E+00 -1.00000000E+00 -1.00000000E+00 -1.00000000E+00
 -1.00000000E+00 -1.00000000E+00 -1.00000000E+00 -2.75000000E+00 -1.00000000E+00
 -1.00000000E+00
Nuclear QMom                               R   N=          16
  0.00000000E+00  0.00000000E+00  0.00000000E+00  0.00000000E+00  0.00000000E+00
  0.00000000E+00  0.00000000E+00  0.00000000E+00  0.00000000E+00  0.00000000E+00
  0.00000000E+00  0.00000000E+00  0.00000000E+00  4.05900000E+00  0.00000000E+00
  0.00000000E+00
Nuclear GFac                               R   N=          16
  0.00000000E+00  0.00000000E+00  0.00000000E+00  0.00000000E+00  0.00000000E+00
  0.00000000E+00  0.00000000E+00  2.79284600E+00  2.79284600E+00  2.79284600E+00
  2.79284600E+00  2.79284600E+00  2.79284600E+00  2.68863700E+00  2.79284600E+00
  2.79284600E+00
MicOpt                                     I   N=          16
          -1          -1          -1          -1          -1          -1
          -1          -1          -1          -1          -1          -1
          -1          -1          -1          -1
Number of contracted shells                I               88
Number of primitive shells                 I              160
Pure/Cartesian d shells                    I                0
Pure/Cartesian f shells                    I                0
Highest angular momentum                   I                2
Largest degree of contraction              I                6
Shell types                                I   N=          88
           0          -1          -1          -1          -1          -2
           0          -1          -1          -1          -1          -2
           0          -1          -1          -1          -1          -2
           0          -1          -1          -1          -1          -2
           0          -1          -1          -1          -1          -2
           0          -1          -1          -1          -1          -2
           0          -1          -1          -1          -1          -2
           0           0           0           0           1           0
           0           0           0           1           0           0
           0           0           1           0           0           0
           0           1           0           0           0           0
           1           0           0           0           0           1
           0          -1          -1          -1          -1          -2
           0           0           0           0           1           0
           0           0           0           1
Number of primitives per shell             I   N=          88
           6           3           1           1           1           1
           6           3           1           1           1           1
           6           3           1           1           1           1
           6           3           1           1           1           1
           6           3           1           1           1           1
           6           3           1           1           1           1
           6           3           1           1           1           1
           3           1           1           1           1           3
           1           1           1           1           3           1
           1           1           1           3           1           1
           1           1           3           1           1           1
           1           3           1           1           1           1
           6           3           1           1           1           1
           3           1           1           1           1           3
           1           1           1           1
Shell to atom map                          I   N=          88
           1           1           1           1           1           1
           2           2           2           2           2           2
           3           3           3           3           3           3
           4           4           4           4           4           4
           5           5           5           5           5           5
           6           6           6           6           6           6
           7           7           7           7           7           7
           8           8           8           8           8           9
           9           9           9           9          10          10
          10          10          10          11          11          11
          11          11          12          12          12          12
          12          13          13          13          13          13
          14          14          14          14          14          14
          15          15          15          15          15          16
          16          16          16          16
Primitive exponents                        R   N=         160
  4.56324000E+03  6.82024000E+02  1.54973000E+02  4.44553000E+01  1.30290000E+01
  1.82773000E+00  2.09642000E+01  4.80331000E+00  1.45933000E+00  4.83456000E-01
  1.45585000E-01  4.38000000E-02  6.26000000E-01  4.56324000E+03  6.82024000E+02
  1.54973000E+02  4.44553000E+01  1.30290000E+01  1.82773000E+00  2.09642000E+01
  4.80331000E+00  1.45933000E+00  4.83456000E-01  1.45585000E-01  4.38000000E-02
  6.26000000E-01  4.56324000E+03  6.82024000E+02  1.54973000E+02  4.44553000E+01
  1.30290000E+01  1.82773000E+00  2.09642000E+01  4.80331000E+00  1.45933000E+00
  4.83456000E-01  1.45585000E-01  4.38000000E-02  6.26000000E-01  4.56324000E+03
  6.82024000E+02  1.54973000E+02  4.44553000E+01  1.30290000E+01  1.82773000E+00
  2.09642000E+01  4.80331000E+00  1.45933000E+00  4.83456000E-01  1.45585000E-01
  4.38000000E-02  6.26000000E-01  4.56324000E+03  6.82024000E+02  1.54973000E+02
  4.44553000E+01  1.30290000E+01  1.82773000E+00  2.09642000E+01  4.80331000E+00
  1.45933000E+00  4.83456000E-01  1.45585000E-01  4.38000000E-02  6.26000000E-01
  4.56324000E+03  6.82024000E+02  1.54973000E+02  4.44553000E+01  1.30290000E+01
  1.82773000E+00  2.09642000E+01  4.80331000E+00  1.45933000E+00  4.83456000E-01
  1.45585000E-01  4.38000000E-02  6.26000000E-01  4.56324000E+03  6.82024000E+02
  1.54973000E+02  4.44553000E+01  1.30290000E+01  1.82773000E+00  2.09642000E+01
  4.80331000E+00  1.45933000E+00  4.83456000E-01  1.45585000E-01  4.38000000E-02
  6.26000000E-01  3.38650000E+01  5.09479000E+00  1.15879000E+00  3.25840000E-01
  1.02741000E-01  3.60000000E-02  7.50000000E-01  3.38650000E+01  5.09479000E+00
  1.15879000E+00  3.25840000E-01  1.02741000E-01  3.60000000E-02  7.50000000E-01
  3.38650000E+01  5.09479000E+00  1.15879000E+00  3.25840000E-01  1.02741000E-01
  3.60000000E-02  7.50000000E-01  3.38650000E+01  5.09479000E+00  1.15879000E+00
  3.25840000E-01  1.02741000E-01  3.60000000E-02  7.50000000E-01  3.38650000E+01
  5.09479000E+00  1.15879000E+00  3.25840000E-01  1.02741000E-01  3.60000000E-02
  7.50000000E-01  3.38650000E+01  5.09479000E+00  1.15879000E+00  3.25840000E-01
  1.02741000E-01  3.60000000E-02  7.50000000E-01  2.85889000E+03  4.28140000E+02
  9.75282000E+01  2.79693000E+01  8.21577000E+00  1.11278000E+00  1.32415000E+01
  3.00166000E+00  9.12856000E-01  3.15454000E-01  9.88563000E-02  3.15000000E-02
  4.01000000E-01  3.38650000E+01  5.09479000E+00  1.15879000E+00  3.25840000E-01
  1.02741000E-01  3.60000000E-02  7.50000000E-01  3.38650000E+01  5.09479000E+00
  1.15879000E+00  3.25840000E-01  1.02741000E-01  3.60000000E-02  7.50000000E-01
Contraction coefficients                   R   N=         160
  1.96665025E-03  1.52306019E-02  7.61269097E-02  2.60801033E-01  6.16462078E-01
  2.21006028E-01  1.14660081E-01  9.19999648E-01 -3.03068213E-03  1.00000000E+00
  1.00000000E+00  1.00000000E+00  1.00000000E+00  1.96665025E-03  1.52306019E-02
  7.61269097E-02  2.60801033E-01  6.16462078E-01  2.21006028E-01  1.14660081E-01
  9.19999648E-01 -3.03068213E-03  1.00000000E+00  1.00000000E+00  1.00000000E+00
  1.00000000E+00  1.96665025E-03  1.52306019E-02  7.61269097E-02  2.60801033E-01
  6.16462078E-01  2.21006028E-01  1.14660081E-01  9.19999648E-01 -3.03068213E-03
  1.00000000E+00  1.00000000E+00  1.00000000E+00  1.00000000E+00  1.96665025E-03
  1.52306019E-02  7.61269097E-02  2.60801033E-01  6.16462078E-01  2.21006028E-01
  1.14660081E-01  9.19999648E-01 -3.03068213E-03  1.00000000E+00  1.00000000E+00
  1.00000000E+00  1.00000000E+00  1.96665025E-03  1.52306019E-02  7.61269097E-02
  2.60801033E-01  6.16462078E-01  2.21006028E-01  1.14660081E-01  9.19999648E-01
 -3.03068213E-03  1.00000000E+00  1.00000000E+00  1.00000000E+00  1.00000000E+00
  1.96665025E-03  1.52306019E-02  7.61269097E-02  2.60801033E-01  6.16462078E-01
  2.21006028E-01  1.14660081E-01  9.19999648E-01 -3.03068213E-03  1.00000000E+00
  1.00000000E+00  1.00000000E+00  1.00000000E+00  1.96665025E-03  1.52306019E-02
  7.61269097E-02  2.60801033E-01  6.16462078E-01  2.21006028E-01  1.14660081E-01
  9.19999648E-01 -3.03068213E-03  1.00000000E+00  1.00000000E+00  1.00000000E+00
  1.00000000E+00  2.54938145E-02  1.90373109E-01  8.52161486E-01  1.00000000E+00
  1.00000000E+00  1.00000000E+00  1.00000000E+00  2.54938145E-02  1.90373109E-01
  8.52161486E-01  1.00000000E+00  1.00000000E+00  1.00000000E+00  1.00000000E+00
  2.54938145E-02  1.90373109E-01  8.52161486E-01  1.00000000E+00  1.00000000E+00
  1.00000000E+00  1.00000000E+00  2.54938145E-02  1.90373109E-01  8.52161486E-01
  1.00000000E+00  1.00000000E+00  1.00000000E+00  1.00000000E+00  2.54938145E-02
  1.90373109E-01  8.52161486E-01  1.00000000E+00  1.00000000E+00  1.00000000E+00
  1.00000000E+00  2.54938145E-02  1.90373109E-01  8.52161486E-01  1.00000000E+00
  1.00000000E+00  1.00000000E+00  1.00000000E+00  2.15374907E-03  1.65822928E-02
  8.21869644E-02  2.76617880E-01  6.29315727E-01  1.73769925E-01  1.17442942E-01
  9.18001549E-01 -2.65104870E-03  1.00000000E+00  1.00000000E+00  1.00000000E+00
  1.00000000E+00  2.54938145E-02  1.90373109E-01  8.52161486E-01  1.00000000E+00
  1.00000000E+00  1.00000000E+00  1.00000000E+00  2.54938145E-02  1.90373109E-01
  8.52161486E-01  1.00000000E+00  1.00000000E+00  1.00000000E+00  1.00000000E+00
P(S=P) Contraction coefficients            R   N=         160
  0.00000000E+00  0.00000000E+00  0.00000000E+00  0.00000000E+00  0.00000000E+00
  0.00000000E+00  4.02486927E-02  2.37593957E-01  8.15853851E-01  1.00000000E+00
  1.00000000E+00  1.00000000E+00  0.00000000E+00  0.00000000E+00  0.00000000E+00
  0.00000000E+00  0.00000000E+00  0.00000000E+00  0.00000000E+00  4.02486927E-02
  2.37593957E-01  8.15853851E-01  1.00000000E+00  1.00000000E+00  1.00000000E+00
  0.00000000E+00  0.00000000E+00  0.00000000E+00  0.00000000E+00  0.00000000E+00
  0.00000000E+00  0.00000000E+00  4.02486927E-02  2.37593957E-01  8.15853851E-01
  1.00000000E+00  1.00000000E+00  1.00000000E+00  0.00000000E+00  0.00000000E+00
  0.00000000E+00  0.00000000E+00  0.00000000E+00  0.00000000E+00  0.00000000E+00
  4.02486927E-02  2.37593957E-01  8.15853851E-01  1.00000000E+00  1.00000000E+00
  1.00000000E+00  0.00000000E+00  0.00000000E+00  0.00000000E+00  0.00000000E+00
  0.00000000E+00  0.00000000E+00  0.00000000E+00  4.02486927E-02  2.37593957E-01
  8.15853851E-01  1.00000000E+00  1.00000000E+00  1.00000000E+00  0.00000000E+00
  0.00000000E+00  0.00000000E+00  0.00000000E+00  0.00000000E+00  0.00000000E+00
  0.00000000E+00  4.02486927E-02  2.37593957E-01  8.15853851E-01  1.00000000E+00
  1.00000000E+00  1.00000000E+00  0.00000000E+00  0.00000000E+00  0.00000000E+00
  0.00000000E+00  0.00000000E+00  0.00000000E+00  0.00000000E+00  4.02486927E-02
  2.37593957E-01  8.15853851E-01  1.00000000E+00  1.00000000E+00  1.00000000E+00
  0.00000000E+00  0.00000000E+00  0.00000000E+00  0.00000000E+00  0.00000000E+00
  0.00000000E+00  0.00000000E+00  0.00000000E+00  0.00000000E+00  0.00000000E+00
  0.00000000E+00  0.00000000E+00  0.00000000E+00  0.00000000E+00  0.00000000E+00
  0.00000000E+00  0.00000000E+00  0.00000000E+00  0.00000000E+00  0.00000000E+00
  0.00000000E+00  0.00000000E+00  0.00000000E+00  0.00000000E+00  0.00000000E+00
  0.00000000E+00  0.00000000E+00  0.00000000E+00  0.00000000E+00  0.00000000E+00
  0.00000000E+00  0.00000000E+00  0.00000000E+00  0.00000000E+00  0.00000000E+00
  0.00000000E+00  0.00000000E+00  0.00000000E+00  0.00000000E+00  0.00000000E+00
  0.00000000E+00  0.00000000E+00  0.00000000E+00  0.00000000E+00  0.00000000E+00
  0.00000000E+00  0.00000000E+00  0.00000000E+00  0.00000000E+00  4.18099989E-02
  2.36574994E-01  8.16213978E-01  1.00000000E+00  1.00000000E+00  1.00000000E+00
  0.00000000E+00  0.00000000E+00  0.00000000E+00  0.00000000E+00  0.00000000E+00
  0.00000000E+00  0.00000000E+00  0.00000000E+00  0.00000000E+00  0.00000000E+00
  0.00000000E+00  0.00000000E+00  0.00000000E+00  0.00000000E+00  0.00000000E+00
Coordinates of each shell                  R   N=         264
  1.27380917E+00 -3.54066838E+00  0.00000000E+00  1.27380917E+00 -3.54066838E+00
  0.00000000E+00  1.27380917E+00 -3.54066838E+00  0.00000000E+00  1.27380917E+00
 -3.54066838E+00  0.00000000E+00  1.27380917E+00 -3.54066838E+00  0.00000000E+00
  1.27380917E+00 -3.54066838E+00  0.00000000E+00  2.98695188E+00 -1.35822001E+00
  0.00000000E+00  2.98695188E+00 -1.35822001E+00  0.00000000E+00  2.98695188E+00
 -1.35822001E+00  0.00000000E+00  2.98695188E+00 -1.35822001E+00  0.00000000E+00
  2.98695188E+00 -1.35822001E+00  0.00000000E+00  2.98695188E+00 -1.35822001E+00
  0.00000000E+00 -1.27383078E+00 -3.54048112E+00  0.00000000E+00 -1.27383078E+00
 -3.54048112E+00  0.00000000E+00 -1.27383078E+00 -3.54048112E+00  0.00000000E+00
 -1.27383078E+00 -3.54048112E+00  0.00000000E+00 -1.27383078E+00 -3.54048112E+00
  0.00000000E+00 -1.27383078E+00 -3.54048112E+00  0.00000000E+00 -2.98688816E+00
 -1.35814023E+00  0.00000000E+00 -2.98688816E+00 -1.35814023E+00  0.00000000E+00
 -2.98688816E+00 -1.35814023E+00  0.00000000E+00 -2.98688816E+00 -1.35814023E+00
  0.00000000E+00 -2.98688816E+00 -1.35814023E+00  0.00000000E+00 -2.98688816E+00
 -1.35814023E+00  0.00000000E+00 -2.39550954E+00  1.14391571E+00  0.00000000E+00
 -2.39550954E+00  1.14391571E+00  0.00000000E+00 -2.39550954E+00  1.14391571E+00
  0.00000000E+00 -2.39550954E+00  1.14391571E+00  0.00000000E+00 -2.39550954E+00
  1.14391571E+00  0.00000000E+00 -2.39550954E+00  1.14391571E+00  0.00000000E+00
  0.00000000E+00  2.51652001E+00  0.00000000E+00  0.00000000E+00  2.51652001E+00
  0.00000000E+00  0.00000000E+00  2.51652001E+00  0.00000000E+00  0.00000000E+00
  2.51652001E+00  0.00000000E+00  0.00000000E+00  2.51652001E+00  0.00000000E+00
  0.00000000E+00  2.51652001E+00  0.00000000E+00  2.39566998E+00  1.14375854E+00
  0.00000000E+00  2.39566998E+00  1.14375854E+00  0.00000000E+00  2.39566998E+00
  1.14375854E+00  0.00000000E+00  2.39566998E+00  1.14375854E+00  0.00000000E+00
  2.39566998E+00  1.14375854E+00  0.00000000E+00  2.39566998E+00  1.14375854E+00
  0.00000000E+00 -4.02678530E+00  2.40336916E+00  0.00000000E+00 -4.02678530E+00
  2.40336916E+00  0.00000000E+00 -4.02678530E+00  2.40336916E+00  0.00000000E+00
 -4.02678530E+00  2.40336916E+00  0.00000000E+00 -4.02678530E+00  2.40336916E+00
  0.00000000E+00  4.02693457E+00  2.40325711E+00  0.00000000E+00  4.02693457E+00
  2.40325711E+00  0.00000000E+00  4.02693457E+00  2.40325711E+00  0.00000000E+00
  4.02693457E+00  2.40325711E+00  0.00000000E+00  4.02693457E+00  2.40325711E+00
  0.00000000E+00  4.98810380E+00 -1.83492057E+00  0.00000000E+00  4.98810380E+00
 -1.83492057E+00  0.00000000E+00  4.98810380E+00 -1.83492057E+00  0.00000000E+00
  4.98810380E+00 -1.83492057E+00  0.00000000E+00  4.98810380E+00 -1.83492057E+00
  0.00000000E+00  2.20093136E+00 -5.37918111E+00  0.00000000E+00  2.20093136E+00
 -5.37918111E+00  0.00000000E+00  2.20093136E+00 -5.37918111E+00  0.00000000E+00
  2.20093136E+00 -5.37918111E+00  0.00000000E+00  2.20093136E+00 -5.37918111E+00
  0.00000000E+00 -2.20107039E+00 -5.37897294E+00  0.00000000E+00 -2.20107039E+00
 -5.37897294E+00  0.00000000E+00 -2.20107039E+00 -5.37897294E+00  0.00000000E+00
 -2.20107039E+00 -5.37897294E+00  0.00000000E+00 -2.20107039E+00 -5.37897294E+00
  0.00000000E+00 -4.98804203E+00 -1.83476304E+00  0.00000000E+00 -4.98804203E+00
 -1.83476304E+00  0.00000000E+00 -4.98804203E+00 -1.83476304E+00  0.00000000E+00
 -4.98804203E+00 -1.83476304E+00  0.00000000E+00 -4.98804203E+00 -1.83476304E+00
  0.00000000E+00 -1.68166142E-05  5.31323343E+00  0.00000000E+00 -1.68166142E-05
  5.31323343E+00  0.00000000E+00 -1.68166142E-05  5.31323343E+00  0.00000000E+00
 -1.68166142E-05  5.31323343E+00  0.00000000E+00 -1.68166142E-05  5.31323343E+00
  0.00000000E+00 -1.68166142E-05  5.31323343E+00  0.00000000E+00 -1.95399923E+00
  6.50710584E+00  0.00000000E+00 -1.95399923E+00  6.50710584E+00  0.00000000E+00
 -1.95399923E+00  6.50710584E+00  0.00000000E+00 -1.95399923E+00  6.50710584E+00
  0.00000000E+00 -1.95399923E+00  6.50710584E+00  0.00000000E+00  1.95279602E+00
  6.50783123E+00  0.00000000E+00  1.95279602E+00  6.50783123E+00  0.00000000E+00
  1.95279602E+00  6.50783123E+00  0.00000000E+00  1.95279602E+00  6.50783123E+00
  0.00000000E+00  1.95279602E+00  6.50783123E+00  0.00000000E+00
Constraint Structure                       R   N=          48
  1.27380917E+00 -3.54066838E+00  0.00000000E+00  2.98695188E+00 -1.35822001E+00
  0.00000000E+00 -1.27383078E+00 -3.54048112E+00  0.00000000E+00 -2.98688816E+00
 -1.35814023E+00  0.00000000E+00 -2.39550954E+00  1.14391571E+00  0.00000000E+00
  0.00000000E+00  2.51652001E+00  0.00000000E+00  2.39566998E+00  1.14375854E+00
  0.00000000E+00 -4.02678530E+00  2.40336916E+00  0.00000000E+00  4.02693457E+00
  2.40325711E+00  0.00000000E+00  4.98810380E+00 -1.83492057E+00  0.00000000E+00
  2.20093136E+00 -5.37918111E+00  0.00000000E+00 -2.20107039E+00 -5.37897294E+00
  0.00000000E+00 -4.98804203E+00 -1.83476304E+00  0.00000000E+00 -1.68166142E-05
  5.31323343E+00  0.00000000E+00 -1.95399923E+00  6.50710584E+00  0.00000000E+00
  1.95279602E+00  6.50783123E+00  0.00000000E+00
Num ILSW                                   I              100
ILSW                                       I   N=         100
           0           0           0           0           2           0
           0           0           0           0           0          -1
           0           0           0           0           0           0
           0           0           0           0           0           0
           1           0           0           0           0           0
           0           0      100000           0          -1           0
           0           0           0           0           0           0
           0           0           0           1           0           0
           0           0           1           0           0           0
           0           0           4          40           0           0
           0           0           0           0           0           0
           0           0           0           0           0           0
           0           0           0           0           0           0
           0           0           0           0           0           0
           0           0           0           0           0           0
           0           0           0           0           0           0
           0           0           0           0
Num RLSW                                   I               40
RLSW                                       R   N=          40
  1.00000000E+00  1.00000000E+00  1.00000000E+00  1.00000000E+00  1.00000000E+00
  0.00000000E+00  0.00000000E+00  1.00000000E+00  0.00000000E+00  0.00000000E+00
  0.00000000E+00  0.00000000E+00  1.00000000E+00  0.00000000E+00  0.00000000E+00
  0.00000000E+00  0.00000000E+00  1.00000000E+00  0.00000000E+00  0.00000000E+00
  0.00000000E+00  0.00000000E+00  1.00000000E+00  0.00000000E+00  0.00000000E+00
  0.00000000E+00  0.00000000E+00  1.00000000E+00  0.00000000E+00  0.00000000E+00
  0.00000000E+00  0.00000000E+00  0.00000000E+00  0.00000000E+00  0.00000000E+00
  0.00000000E+00  0.00000000E+00  0.00000000E+00  1.00000000E+00  1.00000000E+00
MxBond                                     I                3
NBond                                      I   N=          16
           3           3           3           3           3           3
           3           1           1           1           1           1
           1           3           1           1
IBond                                      I   N=          48
           2           3          11           1           7          10
           1           4          12           3           5          13
           4           6           8           5           7          14
           2           6           9           5           0           0
           7           0           0           2           0           0
           1           0           0           3           0           0
           4           0           0           6          15          16
          14           0           0          14           0           0
RBond                                      R   N=          48
  1.00000000E+00  2.00000000E+00  1.00000000E+00  1.00000000E+00  2.00000000E+00
  1.00000000E+00  2.00000000E+00  1.00000000E+00  1.00000000E+00  1.00000000E+00
  2.00000000E+00  1.00000000E+00  2.00000000E+00  1.00000000E+00  1.00000000E+00
  1.00000000E+00  1.00000000E+00  1.00000000E+00  2.00000000E+00  1.00000000E+00
  1.00000000E+00  1.00000000E+00  0.00000000E+00  0.00000000E+00  1.00000000E+00
  0.00000000E+00  0.00000000E+00  1.00000000E+00  0.00000000E+00  0.00000000E+00
  1.00000000E+00  0.00000000E+00  0.00000000E+00  1.00000000E+00  0.00000000E+00
  0.00000000E+00  1.00000000E+00  0.00000000E+00  0.00000000E+00  1.00000000E+00
  1.00000000E+00  1.00000000E+00  1.00000000E+00  0.00000000E+00  0.00000000E+00
  1.00000000E+00  0.00000000E+00  0.00000000E+00
Virial Ratio                               R      2.001060802890984E+00
SCF Energy                                 R     -2.944255001944345E+02
MP2 Energy                                 R     -2.955028613409830E+02
Total Energy                               R     -2.955028613409830E+02
Post-SCF wavefunction norm                 R      1.188013155446247E+00
RMS Density                                R      5.895936134313688E-09
External E-field                           R   N=          35
  0.00000000E+00  0.00000000E+00  0.00000000E+00  0.00000000E+00  0.00000000E+00
  0.00000000E+00  0.00000000E+00  0.00000000E+00  0.00000000E+00  0.00000000E+00
  0.00000000E+00  0.00000000E+00  0.00000000E+00  0.00000000E+00  0.00000000E+00
  0.00000000E+00  0.00000000E+00  0.00000000E+00  0.00000000E+00  0.00000000E+00
  0.00000000E+00  0.00000000E+00  0.00000000E+00  0.00000000E+00  0.00000000E+00
  0.00000000E+00  0.00000000E+00  0.00000000E+00  0.00000000E+00  0.00000000E+00
  0.00000000E+00  0.00000000E+00  0.00000000E+00  0.00000000E+00  0.00000000E+00
IOpCl                                      I                0
IROHF                                      I                0
Alpha Orbital Energies                     R   N=         232
 -1.10837019E+01 -1.10836957E+01 -1.10834474E+01 -1.10818814E+01 -1.10563019E+01
 -1.10562792E+01 -1.10119135E+01 -7.37138645E+00 -9.52879827E-01 -8.71981738E-01
 -8.67016104E-01 -7.27466328E-01 -7.02302551E-01 -5.50792750E-01 -5.43040534E-01
 -5.34609598E-01 -4.74215733E-01 -4.42203788E-01 -4.04303819E-01 -3.78345454E-01
 -3.66053021E-01 -3.21286336E-01 -3.00378302E-01 -2.87887397E-01 -2.74039686E-01
 -2.16382075E-01 -2.14823409E-01 -4.73522468E-02  1.37010781E-01  1.42447548E-01
  1.51549658E-01  1.60097487E-01  1.65598692E-01  1.78823142E-01  1.88244800E-01
  1.90018018E-01  2.09106932E-01  2.14269707E-01  2.20362776E-01  2.48471649E-01
  2.48541082E-01  2.59339486E-01  2.75272845E-01  2.89790276E-01  2.91979060E-01
  2.93169382E-01  2.93443919E-01  3.02066937E-01  3.04118961E-01  3.10128683E-01
  3.15971631E-01  3.27771129E-01  3.32307773E-01  3.37650798E-01  3.42127808E-01
  3.46114069E-01  3.48712043E-01  3.68997524E-01  3.70539704E-01  3.71283721E-01
  3.79594823E-01  3.91677784E-01  3.93026746E-01  4.10613776E-01  4.24157704E-01
  4.29670849E-01  4.30935891E-01  4.42675730E-01  4.56253912E-01  4.67861715E-01
  4.74465292E-01  4.79248641E-01  4.82487052E-01  5.12115239E-01  5.20763310E-01
  5.35713789E-01  5.44843230E-01  5.69934575E-01  5.72264339E-01  5.92309339E-01
  5.98236771E-01  6.14845068E-01  6.38872527E-01  7.15711861E-01  7.17787245E-01
  7.30685644E-01  7.65634926E-01  7.68673332E-01  7.75210337E-01  8.41542043E-01
  8.56476786E-01  8.66349241E-01  8.69533901E-01  8.83356573E-01  9.07319523E-01
  9.11275643E-01  9.18923377E-01  9.19122124E-01  9.33859174E-01  9.66079181E-01
  9.71829090E-01  9.91333375E-01  1.00510848E+00  1.01805595E+00  1.02591032E+00
  1.03964061E+00  1.04206273E+00  1.05396708E+00  1.06528150E+00  1.10877815E+00
  1.11765571E+00  1.13751632E+00  1.14995880E+00  1.15389801E+00  1.17864152E+00
  1.19885718E+00  1.21038286E+00  1.21120725E+00  1.22032459E+00  1.23050786E+00
  1.27183500E+00  1.28884308E+00  1.29418998E+00  1.30997817E+00  1.32361687E+00
  1.36314003E+00  1.38575484E+00  1.40237315E+00  1.43479847E+00  1.44335254E+00
  1.45862470E+00  1.47434852E+00  1.53062707E+00  1.53571283E+00  1.55115279E+00
  1.57713830E+00  1.60238724E+00  1.74237635E+00  1.76178449E+00  1.81902775E+00