Clamp-25                                                                
SP        RMP2-FC                                                     6-311++G(d,p)       
Number of atoms                            I               12
Info1-9                                    I   N=           9
          21          21           0           0           0         110
           1           2           1
Charge                                     I                0
Multiplicity                               I                1
Number of electrons                        I               42
Number of alpha electrons                  I               21
Number of beta electrons                   I               21
Number of basis functions                  I              174
Number of independent functions            I              174
Number of point charges in /Mol/           I                0
Number of translation vectors              I                0
Atomic numbers                             I   N=          12
           6           6           6           6           6           6
           1           1           1           1           1           1
Nuclear charges                            R   N=          12
  6.00000000E+00  6.00000000E+00  6.00000000E+00  6.00000000E+00  6.00000000E+00
  6.00000000E+00  1.00000000E+00  1.00000000E+00  1.00000000E+00  1.00000000E+00
  1.00000000E+00  1.00000000E+00
Current cartesian coordinates              R   N=          36
  0.00000000E+00  2.68104895E+00  6.62682861E-02  0.00000000E+00  1.39784176E+00
  2.28861834E+00 -1.71186244E-16 -1.39784176E+00  2.28861834E+00 -3.28333802E-16
 -2.68104895E+00  6.62682861E-02  0.00000000E+00 -1.28309570E+00 -2.35486962E+00
  1.57133904E-16  1.28309570E+00 -2.35486962E+00  0.00000000E+00  4.53440541E+00
 -7.98037645E-01  0.00000000E+00  1.57607884E+00  4.32583193E+00 -1.93013990E-16
 -1.57607884E+00  4.32583193E+00 -5.55304508E-16 -4.53440541E+00 -7.98037645E-01
  0.00000000E+00 -2.95823020E+00 -3.52789633E+00  3.62278715E-16  2.95823020E+00
 -3.52789633E+00
Force Field                                I                0
Int Atom Types                             I   N=          12
           0           0           0           0           0           0
           0           0           0           0           0           0
MM charges                                 R   N=          12
  0.00000000E+00  0.00000000E+00  0.00000000E+00  0.00000000E+00  0.00000000E+00
  0.00000000E+00  0.00000000E+00  0.00000000E+00  0.00000000E+00  0.00000000E+00
  0.00000000E+00  0.00000000E+00
Integer atomic weights                     I   N=          12
          12          12          12          12          12          12
           1           1           1           1           1           1
Real atomic weights                        R   N=          12
  1.20000000E+01  1.20000000E+01  1.20000000E+01  1.20000000E+01  1.20000000E+01
  1.20000000E+01  1.00782504E+00  1.00782504E+00  1.00782504E+00  1.00782504E+00
  1.00782504E+00  1.00782504E+00
Atom fragment info                         I   N=          12
           0           0           0           0           0           0
           0           0           0           0           0           0
Atom residue num                           I   N=          12
           0           0           0           0           0           0
           0           0           0           0           0           0
Nuclear spins                              I   N=          12
           0           0           0           0           0           0
           1           1           1           1           1           1
Nuclear ZEff                               R   N=          12
 -3.60000000E+00 -3.60000000E+00 -3.60000000E+00 -3.60000000E+00 -3.60000000E+00
 -3.60000000E+00 -1.00000000E+00 -1.00000000E+00 -1.00000000E+00 -1.00000000E+00
 -1.00000000E+00 -1.00000000E+00
Nuclear QMom                               R   N=          12
  0.00000000E+00  0.00000000E+00  0.00000000E+00  0.00000000E+00  0.00000000E+00
  0.00000000E+00  0.00000000E+00  0.00000000E+00  0.00000000E+00  0.00000000E+00
  0.00000000E+00  0.00000000E+00
Nuclear GFac                               R   N=          12
  0.00000000E+00  0.00000000E+00  0.00000000E+00  0.00000000E+00  0.00000000E+00
  0.00000000E+00  2.79284600E+00  2.79284600E+00  2.79284600E+00  2.79284600E+00
  2.79284600E+00  2.79284600E+00
MicOpt                                     I   N=          12
          -1          -1          -1          -1          -1          -1
          -1          -1          -1          -1          -1          -1
Number of contracted shells                I               66
Number of primitive shells                 I              120
Pure/Cartesian d shells                    I                0
Pure/Cartesian f shells                    I                0
Highest angular momentum                   I                2
Largest degree of contraction              I                6
Shell types                                I   N=          66
           0          -1          -1          -1          -1          -2
           0          -1          -1          -1          -1          -2
           0          -1          -1          -1          -1          -2
           0          -1          -1          -1          -1          -2
           0          -1          -1          -1          -1          -2
           0          -1          -1          -1          -1          -2
           0           0           0           0           1           0
           0           0           0           1           0           0
           0           0           1           0           0           0
           0           1           0           0           0           0
           1           0           0           0           0           1
Number of primitives per shell             I   N=          66
           6           3           1           1           1           1
           6           3           1           1           1           1
           6           3           1           1           1           1
           6           3           1           1           1           1
           6           3           1           1           1           1
           6           3           1           1           1           1
           3           1           1           1           1           3
           1           1           1           1           3           1
           1           1           1           3           1           1
           1           1           3           1           1           1
           1           3           1           1           1           1
Shell to atom map                          I   N=          66
           1           1           1           1           1           1
           2           2           2           2           2           2
           3           3           3           3           3           3
           4           4           4           4           4           4
           5           5           5           5           5           5
           6           6           6           6           6           6
           7           7           7           7           7           8
           8           8           8           8           9           9
           9           9           9          10          10          10
          10          10          11          11          11          11
          11          12          12          12          12          12
Primitive exponents                        R   N=         120
  4.56324000E+03  6.82024000E+02  1.54973000E+02  4.44553000E+01  1.30290000E+01
  1.82773000E+00  2.09642000E+01  4.80331000E+00  1.45933000E+00  4.83456000E-01
  1.45585000E-01  4.38000000E-02  6.26000000E-01  4.56324000E+03  6.82024000E+02
  1.54973000E+02  4.44553000E+01  1.30290000E+01  1.82773000E+00  2.09642000E+01
  4.80331000E+00  1.45933000E+00  4.83456000E-01  1.45585000E-01  4.38000000E-02
  6.26000000E-01  4.56324000E+03  6.82024000E+02  1.54973000E+02  4.44553000E+01
  1.30290000E+01  1.82773000E+00  2.09642000E+01  4.80331000E+00  1.45933000E+00
  4.83456000E-01  1.45585000E-01  4.38000000E-02  6.26000000E-01  4.56324000E+03
  6.82024000E+02  1.54973000E+02  4.44553000E+01  1.30290000E+01  1.82773000E+00
  2.09642000E+01  4.80331000E+00  1.45933000E+00  4.83456000E-01  1.45585000E-01
  4.38000000E-02  6.26000000E-01  4.56324000E+03  6.82024000E+02  1.54973000E+02
  4.44553000E+01  1.30290000E+01  1.82773000E+00  2.09642000E+01  4.80331000E+00
  1.45933000E+00  4.83456000E-01  1.45585000E-01  4.38000000E-02  6.26000000E-01
  4.56324000E+03  6.82024000E+02  1.54973000E+02  4.44553000E+01  1.30290000E+01
  1.82773000E+00  2.09642000E+01  4.80331000E+00  1.45933000E+00  4.83456000E-01
  1.45585000E-01  4.38000000E-02  6.26000000E-01  3.38650000E+01  5.09479000E+00
  1.15879000E+00  3.25840000E-01  1.02741000E-01  3.60000000E-02  7.50000000E-01
  3.38650000E+01  5.09479000E+00  1.15879000E+00  3.25840000E-01  1.02741000E-01
  3.60000000E-02  7.50000000E-01  3.38650000E+01  5.09479000E+00  1.15879000E+00
  3.25840000E-01  1.02741000E-01  3.60000000E-02  7.50000000E-01  3.38650000E+01
  5.09479000E+00  1.15879000E+00  3.25840000E-01  1.02741000E-01  3.60000000E-02
  7.50000000E-01  3.38650000E+01  5.09479000E+00  1.15879000E+00  3.25840000E-01
  1.02741000E-01  3.60000000E-02  7.50000000E-01  3.38650000E+01  5.09479000E+00
  1.15879000E+00  3.25840000E-01  1.02741000E-01  3.60000000E-02  7.50000000E-01
Contraction coefficients                   R   N=         120
  1.96665025E-03  1.52306019E-02  7.61269097E-02  2.60801033E-01  6.16462078E-01
  2.21006028E-01  1.14660081E-01  9.19999648E-01 -3.03068213E-03  1.00000000E+00
  1.00000000E+00  1.00000000E+00  1.00000000E+00  1.96665025E-03  1.52306019E-02
  7.61269097E-02  2.60801033E-01  6.16462078E-01  2.21006028E-01  1.14660081E-01
  9.19999648E-01 -3.03068213E-03  1.00000000E+00  1.00000000E+00  1.00000000E+00
  1.00000000E+00  1.96665025E-03  1.52306019E-02  7.61269097E-02  2.60801033E-01
  6.16462078E-01  2.21006028E-01  1.14660081E-01  9.19999648E-01 -3.03068213E-03
  1.00000000E+00  1.00000000E+00  1.00000000E+00  1.00000000E+00  1.96665025E-03
  1.52306019E-02  7.61269097E-02  2.60801033E-01  6.16462078E-01  2.21006028E-01
  1.14660081E-01  9.19999648E-01 -3.03068213E-03  1.00000000E+00  1.00000000E+00
  1.00000000E+00  1.00000000E+00  1.96665025E-03  1.52306019E-02  7.61269097E-02
  2.60801033E-01  6.16462078E-01  2.21006028E-01  1.14660081E-01  9.19999648E-01
 -3.03068213E-03  1.00000000E+00  1.00000000E+00  1.00000000E+00  1.00000000E+00
  1.96665025E-03  1.52306019E-02  7.61269097E-02  2.60801033E-01  6.16462078E-01
  2.21006028E-01  1.14660081E-01  9.19999648E-01 -3.03068213E-03  1.00000000E+00
  1.00000000E+00  1.00000000E+00  1.00000000E+00  2.54938145E-02  1.90373109E-01
  8.52161486E-01  1.00000000E+00  1.00000000E+00  1.00000000E+00  1.00000000E+00
  2.54938145E-02  1.90373109E-01  8.52161486E-01  1.00000000E+00  1.00000000E+00
  1.00000000E+00  1.00000000E+00  2.54938145E-02  1.90373109E-01  8.52161486E-01
  1.00000000E+00  1.00000000E+00  1.00000000E+00  1.00000000E+00  2.54938145E-02
  1.90373109E-01  8.52161486E-01  1.00000000E+00  1.00000000E+00  1.00000000E+00
  1.00000000E+00  2.54938145E-02  1.90373109E-01  8.52161486E-01  1.00000000E+00
  1.00000000E+00  1.00000000E+00  1.00000000E+00  2.54938145E-02  1.90373109E-01
  8.52161486E-01  1.00000000E+00  1.00000000E+00  1.00000000E+00  1.00000000E+00
P(S=P) Contraction coefficients            R   N=         120
  0.00000000E+00  0.00000000E+00  0.00000000E+00  0.00000000E+00  0.00000000E+00
  0.00000000E+00  4.02486927E-02  2.37593957E-01  8.15853851E-01  1.00000000E+00
  1.00000000E+00  1.00000000E+00  0.00000000E+00  0.00000000E+00  0.00000000E+00
  0.00000000E+00  0.00000000E+00  0.00000000E+00  0.00000000E+00  4.02486927E-02
  2.37593957E-01  8.15853851E-01  1.00000000E+00  1.00000000E+00  1.00000000E+00
  0.00000000E+00  0.00000000E+00  0.00000000E+00  0.00000000E+00  0.00000000E+00
  0.00000000E+00  0.00000000E+00  4.02486927E-02  2.37593957E-01  8.15853851E-01
  1.00000000E+00  1.00000000E+00  1.00000000E+00  0.00000000E+00  0.00000000E+00
  0.00000000E+00  0.00000000E+00  0.00000000E+00  0.00000000E+00  0.00000000E+00
  4.02486927E-02  2.37593957E-01  8.15853851E-01  1.00000000E+00  1.00000000E+00
  1.00000000E+00  0.00000000E+00  0.00000000E+00  0.00000000E+00  0.00000000E+00
  0.00000000E+00  0.00000000E+00  0.00000000E+00  4.02486927E-02  2.37593957E-01
  8.15853851E-01  1.00000000E+00  1.00000000E+00  1.00000000E+00  0.00000000E+00
  0.00000000E+00  0.00000000E+00  0.00000000E+00  0.00000000E+00  0.00000000E+00
  0.00000000E+00  4.02486927E-02  2.37593957E-01  8.15853851E-01  1.00000000E+00
  1.00000000E+00  1.00000000E+00  0.00000000E+00  0.00000000E+00  0.00000000E+00
  0.00000000E+00  0.00000000E+00  0.00000000E+00  0.00000000E+00  0.00000000E+00
  0.00000000E+00  0.00000000E+00  0.00000000E+00  0.00000000E+00  0.00000000E+00
  0.00000000E+00  0.00000000E+00  0.00000000E+00  0.00000000E+00  0.00000000E+00
  0.00000000E+00  0.00000000E+00  0.00000000E+00  0.00000000E+00  0.00000000E+00
  0.00000000E+00  0.00000000E+00  0.00000000E+00  0.00000000E+00  0.00000000E+00
  0.00000000E+00  0.00000000E+00  0.00000000E+00  0.00000000E+00  0.00000000E+00
  0.00000000E+00  0.00000000E+00  0.00000000E+00  0.00000000E+00  0.00000000E+00
  0.00000000E+00  0.00000000E+00  0.00000000E+00  0.00000000E+00  0.00000000E+00
Coordinates of each shell                  R   N=         198
  0.00000000E+00  2.68104895E+00  6.62682861E-02  0.00000000E+00  2.68104895E+00
  6.62682861E-02  0.00000000E+00  2.68104895E+00  6.62682861E-02  0.00000000E+00
  2.68104895E+00  6.62682861E-02  0.00000000E+00  2.68104895E+00  6.62682861E-02
  0.00000000E+00  2.68104895E+00  6.62682861E-02  0.00000000E+00  1.39784176E+00
  2.28861834E+00  0.00000000E+00  1.39784176E+00  2.28861834E+00  0.00000000E+00
  1.39784176E+00  2.28861834E+00  0.00000000E+00  1.39784176E+00  2.28861834E+00
  0.00000000E+00  1.39784176E+00  2.28861834E+00  0.00000000E+00  1.39784176E+00
  2.28861834E+00 -1.71186244E-16 -1.39784176E+00  2.28861834E+00 -1.71186244E-16
 -1.39784176E+00  2.28861834E+00 -1.71186244E-16 -1.39784176E+00  2.28861834E+00
 -1.71186244E-16 -1.39784176E+00  2.28861834E+00 -1.71186244E-16 -1.39784176E+00
  2.28861834E+00 -1.71186244E-16 -1.39784176E+00  2.28861834E+00 -3.28333802E-16
 -2.68104895E+00  6.62682861E-02 -3.28333802E-16 -2.68104895E+00  6.62682861E-02
 -3.28333802E-16 -2.68104895E+00  6.62682861E-02 -3.28333802E-16 -2.68104895E+00
  6.62682861E-02 -3.28333802E-16 -2.68104895E+00  6.62682861E-02 -3.28333802E-16
 -2.68104895E+00  6.62682861E-02  0.00000000E+00 -1.28309570E+00 -2.35486962E+00
  0.00000000E+00 -1.28309570E+00 -2.35486962E+00  0.00000000E+00 -1.28309570E+00
 -2.35486962E+00  0.00000000E+00 -1.28309570E+00 -2.35486962E+00  0.00000000E+00
 -1.28309570E+00 -2.35486962E+00  0.00000000E+00 -1.28309570E+00 -2.35486962E+00
  1.57133904E-16  1.28309570E+00 -2.35486962E+00  1.57133904E-16  1.28309570E+00
 -2.35486962E+00  1.57133904E-16  1.28309570E+00 -2.35486962E+00  1.57133904E-16
  1.28309570E+00 -2.35486962E+00  1.57133904E-16  1.28309570E+00 -2.35486962E+00
  1.57133904E-16  1.28309570E+00 -2.35486962E+00  0.00000000E+00  4.53440541E+00
 -7.98037645E-01  0.00000000E+00  4.53440541E+00 -7.98037645E-01  0.00000000E+00
  4.53440541E+00 -7.98037645E-01  0.00000000E+00  4.53440541E+00 -7.98037645E-01
  0.00000000E+00  4.53440541E+00 -7.98037645E-01  0.00000000E+00  1.57607884E+00
  4.32583193E+00  0.00000000E+00  1.57607884E+00  4.32583193E+00  0.00000000E+00
  1.57607884E+00  4.32583193E+00  0.00000000E+00  1.57607884E+00  4.32583193E+00
  0.00000000E+00  1.57607884E+00  4.32583193E+00 -1.93013990E-16 -1.57607884E+00
  4.32583193E+00 -1.93013990E-16 -1.57607884E+00  4.32583193E+00 -1.93013990E-16
 -1.57607884E+00  4.32583193E+00 -1.93013990E-16 -1.57607884E+00  4.32583193E+00
 -1.93013990E-16 -1.57607884E+00  4.32583193E+00 -5.55304508E-16 -4.53440541E+00
 -7.98037645E-01 -5.55304508E-16 -4.53440541E+00 -7.98037645E-01 -5.55304508E-16
 -4.53440541E+00 -7.98037645E-01 -5.55304508E-16 -4.53440541E+00 -7.98037645E-01
 -5.55304508E-16 -4.53440541E+00 -7.98037645E-01  0.00000000E+00 -2.95823020E+00
 -3.52789633E+00  0.00000000E+00 -2.95823020E+00 -3.52789633E+00  0.00000000E+00
 -2.95823020E+00 -3.52789633E+00  0.00000000E+00 -2.95823020E+00 -3.52789633E+00
  0.00000000E+00 -2.95823020E+00 -3.52789633E+00  3.62278715E-16  2.95823020E+00
 -3.52789633E+00  3.62278715E-16  2.95823020E+00 -3.52789633E+00  3.62278715E-16
  2.95823020E+00 -3.52789633E+00  3.62278715E-16  2.95823020E+00 -3.52789633E+00
  3.62278715E-16  2.95823020E+00 -3.52789633E+00
Constraint Structure                       R   N=          36
  0.00000000E+00  2.68104895E+00  6.62682861E-02  0.00000000E+00  1.39784176E+00
  2.28861834E+00 -1.71186244E-16 -1.39784176E+00  2.28861834E+00 -3.28333802E-16
 -2.68104895E+00  6.62682861E-02  0.00000000E+00 -1.28309570E+00 -2.35486962E+00
  1.57133904E-16  1.28309570E+00 -2.35486962E+00  0.00000000E+00  4.53440541E+00
 -7.98037645E-01  0.00000000E+00  1.57607884E+00  4.32583193E+00 -1.93013990E-16
 -1.57607884E+00  4.32583193E+00 -5.55304508E-16 -4.53440541E+00 -7.98037645E-01
  0.00000000E+00 -2.95823020E+00 -3.52789633E+00  3.62278715E-16  2.95823020E+00
 -3.52789633E+00
Num ILSW                                   I              100
ILSW                                       I   N=         100
           0           0           0           0           2           0
           0           0           0           0           0          -1
           0           0           0           0           0           0
           0           0           0           0           0           0
           1           0           0           0           0           0
           0           0      100000           0          -1           0
           0           0           0           0           0           0
           0           0           0           1           0           0
           0           0           1           0           0           0
           0           0           4          40           0           0
           0           0           0           0           0           0
           0           0           0           0           0           0
           0           0           0           0           0           0
           0           0           0           0           0           0
           0           0           0           0           0           0
           0           0           0           0           0           0
           0           0           0           0
Num RLSW                                   I               40
RLSW                                       R   N=          40
  1.00000000E+00  1.00000000E+00  1.00000000E+00  1.00000000E+00  1.00000000E+00
  0.00000000E+00  0.00000000E+00  1.00000000E+00  0.00000000E+00  0.00000000E+00
  0.00000000E+00  0.00000000E+00  1.00000000E+00  0.00000000E+00  0.00000000E+00
  0.00000000E+00  0.00000000E+00  1.00000000E+00  0.00000000E+00  0.00000000E+00
  0.00000000E+00  0.00000000E+00  1.00000000E+00  0.00000000E+00  0.00000000E+00
  0.00000000E+00  0.00000000E+00  1.00000000E+00  0.00000000E+00  0.00000000E+00
  0.00000000E+00  0.00000000E+00  0.00000000E+00  0.00000000E+00  0.00000000E+00
  0.00000000E+00  0.00000000E+00  0.00000000E+00  1.00000000E+00  1.00000000E+00
MxBond                                     I                3
NBond                                      I   N=          12
           3           3           3           3           3           3
           1           1           1           1           1           1
IBond                                      I   N=          36
           2           6           7           1           3           8
           2           4           9           3           5          10
           4           6          11           1           5          12
           1           0           0           2           0           0
           3           0           0           4           0           0
           5           0           0           6           0           0
RBond                                      R   N=          36
  2.00000000E+00  1.00000000E+00  1.00000000E+00  2.00000000E+00  1.00000000E+00
  1.00000000E+00  1.00000000E+00  2.00000000E+00  1.00000000E+00  2.00000000E+00
  1.00000000E+00  1.00000000E+00  1.00000000E+00  2.00000000E+00  1.00000000E+00
  1.00000000E+00  2.00000000E+00  1.00000000E+00  1.00000000E+00  0.00000000E+00
  0.00000000E+00  1.00000000E+00  0.00000000E+00  0.00000000E+00  1.00000000E+00
  0.00000000E+00  0.00000000E+00  1.00000000E+00  0.00000000E+00  0.00000000E+00
  1.00000000E+00  0.00000000E+00  0.00000000E+00  1.00000000E+00  0.00000000E+00
  0.00000000E+00
Virial Ratio                               R      2.001222272426864E+00
SCF Energy                                 R     -2.306039923776000E+02
MP2 Energy                                 R     -2.314506332186444E+02
Total Energy                               R     -2.314506332186444E+02
Post-SCF wavefunction norm                 R      1.149562646679647E+00
RMS Density                                R      3.529564351949390E-09
External E-field                           R   N=          35
  0.00000000E+00  0.00000000E+00  0.00000000E+00  0.00000000E+00  0.00000000E+00
  0.00000000E+00  0.00000000E+00  0.00000000E+00  0.00000000E+00  0.00000000E+00
  0.00000000E+00  0.00000000E+00  0.00000000E+00  0.00000000E+00  0.00000000E+00
  0.00000000E+00  0.00000000E+00  0.00000000E+00  0.00000000E+00  0.00000000E+00
  0.00000000E+00  0.00000000E+00  0.00000000E+00  0.00000000E+00  0.00000000E+00
  0.00000000E+00  0.00000000E+00  0.00000000E+00  0.00000000E+00  0.00000000E+00
  0.00000000E+00  0.00000000E+00  0.00000000E+00  0.00000000E+00  0.00000000E+00
IOpCl                                      I                0
IROHF                                      I                0
Alpha Orbital Energies                     R   N=         174
 -1.12499090E+01 -1.12494385E+01 -1.12494359E+01 -1.12481682E+01 -1.12481655E+01
 -1.12476673E+01 -1.14793294E+00 -1.02422837E+00 -1.02422687E+00 -8.41592671E-01
 -8.41583213E-01 -7.48620498E-01 -6.28675765E-01 -5.96808126E-01 -5.87968621E-01
 -5.87961823E-01 -4.97600964E-01 -4.60151387E-01 -4.60130451E-01 -3.42052607E-01
 -3.42051375E-01  4.16524470E-02  4.89707286E-02  4.89712702E-02  6.71710321E-02
  6.71712657E-02  8.94902628E-02  1.01879518E-01  1.01887559E-01  1.28672462E-01
  1.50475872E-01  1.53170935E-01  1.53171059E-01  1.61351720E-01  1.68231598E-01
  1.68234469E-01  1.88879773E-01  1.88880198E-01  1.89960695E-01  2.08915135E-01
  2.13223453E-01  2.13227946E-01  2.15841032E-01  2.15841442E-01  2.22224752E-01
  2.24910606E-01  2.24911680E-01  2.49402096E-01  2.49403748E-01  2.85228620E-01
  2.85230641E-01  2.97974092E-01  3.24145308E-01  3.36127071E-01  3.44767250E-01
  3.44770540E-01  3.55684656E-01  4.35579156E-01  4.35597138E-01  4.49928624E-01
  4.78670766E-01  4.78674118E-01  5.20321022E-01  5.20327774E-01  5.84884756E-01
  6.52415935E-01  6.90617861E-01  7.11414200E-01  7.38783723E-01  7.38787458E-01
  7.51397232E-01  7.55012500E-01  7.55017694E-01  7.57319695E-01  7.57323522E-01
  7.91901980E-01  8.15190938E-01  8.15194248E-01  8.81058922E-01  8.86490405E-01
  8.86495029E-01  9.55666140E-01  9.55670770E-01  9.58893044E-01  1.00690829E+00
  1.00691020E+00  1.01249360E+00  1.04828510E+00  1.06490274E+00  1.06490357E+00
  1.14556025E+00  1.14608177E+00  1.14609071E+00  1.16007065E+00  1.20780655E+00
  1.20780951E+00  1.23482098E+00  1.30825473E+00  1.30826481E+00  1.35260985E+00
  1.40877141E+00  1.40877997E+00  1.52821469E+00  1.60720738E+00  1.68481603E+00
  1.68483847E+00  1.74274312E+00  1.75203998E+00  1.75204519E+00  1.79824394E+00
  1.90322214E+00  1.90325690E+00  1.96166840E+00  1.96166897E+00  1.97907576E+00
  2.04764306E+00  2.04764780E+00  2.04886867E+00  2.04889808E+00  2.14207658E+00
  2.14208482E+00  2.14471918E+00  2.17869985E+00  2.20898630E+00  2.20899253E+00
  2.33133058E+00  2.39998848E+00  2.39999548E+00  2.42909374E+00  2.46439080E+00
  2.46440049E+00  2.50705436E+00  2.50706145E+00  2.69531944E+00  2.75533118E+00
  2.80135544E+00  2.80140919E+00  2.84748115E+00  2.90498056E+00  2.92817460E+00
  2.92818104E+00  3.04732823E+00  3.09838671E+00  3.09839122E+00  3.18763814E+00
  3.18764521E+00  3.24699679E+00  3.24700158E+00  3.26393669E+00  3.29579306E+00
  3.29579420E+00  3.38213565E+00  3.38214318E+00  3.45259651E+00  3.45766063E+00
  3.55196405E+00  3.64446538E+00  3.64451410E+00  3.76236679E+00  3.94627455E+00
  3.94671275E+00  3.94672061E+00  4.29897520E+00  4.29898049E+00  4.50740891E+00
  4.52393649E+00  4.52393781E+00  5.18710475E+00  2.46820437E+01  2.50161044E+01
  2.50161549E+01  2.54657722E+01  2.54657916E+01  2.55170263E+01
Alpha MO coefficients                      R   N=       30276
  2.30369439E-01  1.90735762E-01  0.00000000E+00 -4.47851511E-05  3.63188624E-05
  1.94196409E-03  0.00000000E+00 -1.06882218E-04 -2.27419720E-05 -2.59068066E-04
  0.00000000E+00  2.36604180E-05  9.34482385E-06 -2.07878497E-04  0.00000000E+00
 -2.10032461E-04  1.69392109E-04  1.24515480E-04  0.00000000E+00 -9.12501375E-05
 -9.72075989E-05  0.00000000E+00  2.30295206E-01  1.90674198E-01  0.00000000E+00
  8.77441250E-06 -5.69566550E-05  1.94186426E-03  0.00000000E+00 -7.38908617E-05
 -8.13547013E-05 -2.59020953E-04  0.00000000E+00  2.06709715E-05  1.46349074E-05
 -2.03999809E-04  0.00000000E+00  3.94511039E-05 -2.66440662E-04  1.15381489E-04
  0.00000000E+00 -9.64716375E-05 -1.02178325E-04  0.00000000E+00  2.30295206E-01
  1.90674198E-01  0.00000000E+00 -8.77441250E-06 -5.69566550E-05  1.94186426E-03
  0.00000000E+00  7.38908617E-05 -8.13547013E-05 -2.59020953E-04  0.00000000E+00
 -2.06709715E-05  1.46349074E-05 -2.03999809E-04  0.00000000E+00 -3.94511039E-05
 -2.66440662E-04  1.15381489E-04  0.00000000E+00  9.64716375E-05 -1.02178325E-04
  0.00000000E+00  2.30369439E-01  1.90735762E-01  0.00000000E+00  4.47851511E-05
  3.63188624E-05  1.94196409E-03  0.00000000E+00  1.06882218E-04 -2.27419720E-05
 -2.59068066E-04  0.00000000E+00 -2.36604180E-05  9.34482385E-06 -2.07878497E-04
  0.00000000E+00  2.10032461E-04  1.69392109E-04  1.24515480E-04  0.00000000E+00
  9.12501375E-05 -9.72075989E-05  0.00000000E+00  2.29117740E-01  1.89699158E-01
  0.00000000E+00  5.31546859E-05  2.09802881E-05  1.93268992E-03  0.00000000E+00
  3.37580638E-05  1.05013814E-04 -2.59194219E-04  0.00000000E+00 -2.35496251E-06
 -2.53665835E-05 -1.98131279E-04  0.00000000E+00  2.46115706E-04  9.73789503E-05
 -2.00141897E-05  0.00000000E+00 -6.13128638E-06 -1.79432191E-04  0.00000000E+00
  2.29117740E-01  1.89699158E-01  0.00000000E+00 -5.31546859E-05  2.09802881E-05
  1.93268992E-03  0.00000000E+00 -3.37580638E-05  1.05013814E-04 -2.59194219E-04
  0.00000000E+00  2.35496251E-06 -2.53665835E-05 -1.98131279E-04  0.00000000E+00
 -2.46115706E-04  9.73789503E-05 -2.00141897E-05  0.00000000E+00  6.13128638E-06
 -1.79432191E-04  0.00000000E+00  1.56675304E-04 -1.46224980E-04  2.90741066E-04
  1.50561296E-04  0.00000000E+00  5.03259454E-05  3.61894118E-05  1.56690363E-04
 -1.45607920E-04  2.90973496E-04  1.50573129E-04  0.00000000E+00  5.63465754E-05
  2.52447466E-05  1.56690363E-04 -1.45607920E-04  2.90973496E-04  1.50573129E-04
  0.00000000E+00 -5.63465754E-05  2.52447466E-05  1.56675304E-04 -1.46224980E-04
  2.90741066E-04  1.50561296E-04  0.00000000E+00 -5.03259454E-05  3.61894118E-05
  1.55956465E-04 -1.44273711E-04  2.88816277E-04  1.47902245E-04  0.00000000E+00
  6.49266701E-06 -6.09275956E-05  1.55956465E-04 -1.44273711E-04  2.88816277E-04
  1.47902245E-04  0.00000000E+00 -6.49266701E-06 -6.09275956E-05  3.17542320E-01
  2.62944403E-01  0.00000000E+00 -3.46239593E-05  7.37805745E-05  2.50983389E-03
  0.00000000E+00  1.03363962E-05 -3.19411088E-05 -1.02874313E-04  0.00000000E+00
  9.84694513E-06 -3.74543191E-05 -1.02580788E-03  0.00000000E+00 -9.22474008E-04
  7.20426186E-04  1.81150319E-04  0.00000000E+00 -2.16527628E-04 -1.61342480E-04
  0.00000000E+00  2.20027571E-01  1.82206248E-01  0.00000000E+00  1.41471366E-04
 -1.19780577E-04  1.68073454E-03  0.00000000E+00  1.60117692E-04  1.26715694E-04
  4.30808644E-05  0.00000000E+00 -1.56603334E-04  1.23172367E-04 -2.41768632E-03
  0.00000000E+00  6.30510096E-04 -9.40570787E-04  2.47866130E-04  0.00000000E+00
 -2.22101765E-04 -5.25354026E-05  0.00000000E+00 -2.20027571E-01 -1.82206248E-01
  0.00000000E+00  1.41471366E-04  1.19780577E-04 -1.68073454E-03  0.00000000E+00
  1.60117692E-04 -1.26715694E-04 -4.30808644E-05  0.00000000E+00 -1.56603334E-04
 -1.23172367E-04  2.41768632E-03  0.00000000E+00  6.30510096E-04  9.40570787E-04
 -2.47866130E-04  0.00000000E+00 -2.22101765E-04  5.25354026E-05  0.00000000E+00
 -3.17542320E-01 -2.62944403E-01  0.00000000E+00 -3.46239593E-05 -7.37805745E-05
 -2.50983389E-03  0.00000000E+00  1.03363962E-05  3.19411088E-05  1.02874313E-04
  0.00000000E+00  9.84694513E-06  3.74543191E-05  1.02580788E-03  0.00000000E+00
 -9.22474008E-04 -7.20426186E-04 -1.81150319E-04  0.00000000E+00 -2.16527628E-04
  1.61342480E-04  0.00000000E+00 -9.69090771E-02 -8.02364901E-02  0.00000000E+00
  9.29868082E-05 -5.58805498E-05 -8.24823804E-04  0.00000000E+00  3.94035644E-06
 -2.09541507E-04  1.42401897E-04  0.00000000E+00 -1.52261931E-04  6.31407904E-05
 -1.42424814E-03  0.00000000E+00  3.81619037E-05 -5.19188200E-04 -8.36626085E-05
  0.00000000E+00  1.05172386E-05  2.11796097E-05  0.00000000E+00  9.69090771E-02
  8.02364901E-02  0.00000000E+00  9.29868082E-05  5.58805498E-05  8.24823804E-04
  0.00000000E+00  3.94035644E-06  2.09541507E-04 -1.42401897E-04  0.00000000E+00