 Entering Gaussian System, Link 0=g09
 Initial command:
 /apps/software//g09/l1.exe /scratch/itamar/3034.cluster.abaxnet/Gau-57796.inp -scrdir=/scratch/itamar/3034.cluster.abaxnet/
 Entering Link 1 = /apps/software//g09/l1.exe PID=     57797.
  
 Copyright (c) 1988,1990,1992,1993,1995,1998,2003,2009, Gaussian, Inc.
                  All Rights Reserved.
  
 This is part of the Gaussian(R) 09 program.  It is based on
 the Gaussian(R) 03 system (copyright 2003, Gaussian, Inc.),
 the Gaussian(R) 98 system (copyright 1998, Gaussian, Inc.),
 the Gaussian(R) 94 system (copyright 1995, Gaussian, Inc.),
 the Gaussian 92(TM) system (copyright 1992, Gaussian, Inc.),
 the Gaussian 90(TM) system (copyright 1990, Gaussian, Inc.),
 the Gaussian 88(TM) system (copyright 1988, Gaussian, Inc.),
 the Gaussian 86(TM) system (copyright 1986, Carnegie Mellon
 University), and the Gaussian 82(TM) system (copyright 1983,
 Carnegie Mellon University). Gaussian is a federally registered
 trademark of Gaussian, Inc.
  
 This software contains proprietary and confidential information,
 including trade secrets, belonging to Gaussian, Inc.
  
 This software is provided under written license and may be
 used, copied, transmitted, or stored only in accord with that
 written license.
  
 The following legend is applicable only to US Government
 contracts under FAR:
  
                    RESTRICTED RIGHTS LEGEND
  
 Use, reproduction and disclosure by the US Government is
 subject to restrictions as set forth in subparagraphs (a)
 and (c) of the Commercial Computer Software - Restricted
 Rights clause in FAR 52.227-19.
  
 Gaussian, Inc.
 340 Quinnipiac St., Bldg. 40, Wallingford CT 06492
  
  
 ---------------------------------------------------------------
 Warning -- This program may not be used in any manner that
 competes with the business of Gaussian, Inc. or will provide
 assistance to any competitor of Gaussian, Inc.  The licensee
 of this program is prohibited from giving any competitor of
 Gaussian, Inc. access to this program.  By using this program,
 the user acknowledges that Gaussian, Inc. is engaged in the
 business of creating and licensing software in the field of
 computational chemistry and represents and warrants to the
 licensee that it is not a competitor of Gaussian, Inc. and that
 it will not use this program in any manner prohibited above.
 ---------------------------------------------------------------
  

 Cite this work as:
 Gaussian 09, Revision A.02,
 M. J. Frisch, G. W. Trucks, H. B. Schlegel, G. E. Scuseria, 
 M. A. Robb, J. R. Cheeseman, G. Scalmani, V. Barone, B. Mennucci, 
 G. A. Petersson, H. Nakatsuji, M. Caricato, X. Li, H. P. Hratchian, 
 A. F. Izmaylov, J. Bloino, G. Zheng, J. L. Sonnenberg, M. Hada, 
 M. Ehara, K. Toyota, R. Fukuda, J. Hasegawa, M. Ishida, T. Nakajima, 
 Y. Honda, O. Kitao, H. Nakai, T. Vreven, J. A. Montgomery, Jr., 
 J. E. Peralta, F. Ogliaro, M. Bearpark, J. J. Heyd, E. Brothers, 
 K. N. Kudin, V. N. Staroverov, R. Kobayashi, J. Normand, 
 K. Raghavachari, A. Rendell, J. C. Burant, S. S. Iyengar, J. Tomasi, 
 M. Cossi, N. Rega, J. M. Millam, M. Klene, J. E. Knox, J. B. Cross, 
 V. Bakken, C. Adamo, J. Jaramillo, R. Gomperts, R. E. Stratmann, 
 O. Yazyev, A. J. Austin, R. Cammi, C. Pomelli, J. W. Ochterski, 
 R. L. Martin, K. Morokuma, V. G. Zakrzewski, G. A. Voth, 
 P. Salvador, J. J. Dannenberg, S. Dapprich, A. D. Daniels, 
 O. Farkas, J. B. Foresman, J. V. Ortiz, J. Cioslowski, 
 and D. J. Fox, Gaussian, Inc., Wallingford CT, 2009.
 
 ******************************************
 Gaussian 09:  EM64L-G09RevA.02 11-Jun-2009
                22-Dec-2021 
 ******************************************
 %Mem=7600MB
 %NProcShared=10
 Will use up to   10 processors via shared memory.
 %chk=/home/itamar/Aromaticity-test-set/T11-old-T12-Clar-systems/Dibenzo-anthrace
 ne/diben.chk
 -----------------------------
 #P MP2/6-311++G** DENSITY=MP2
 -----------------------------
 1/30=1,38=1/1;
 2/12=2,17=6,18=5,40=1/2;
 3/5=4,6=6,7=1111,11=9,16=1,25=1,30=1,71=1/1,2,3;
 4//1;
 5/5=2,38=5/2;
 8/6=4,10=2/1;
 9/15=1,16=-3/6;
 10/5=1,13=10/2;
 6/7=2,8=2,9=2,10=2,22=2/1;
 99/5=1,9=1/99;
 Leave Link    1 at Wed Dec 22 16:31:26 2021, MaxMem=  996147200 cpu:       0.5
 (Enter /apps/software//g09/l101.exe)
 ------------------
 Dibenzo-anthracene
 ------------------
 Symbolic Z-matrix:
 Charge =  0 Multiplicity = 1
 6                     2.50184  -1.45414   0. 
 6                     1.2259   -0.74289   0. 
 6                     1.2259    0.68924   0. 
 6                     2.47715   1.39616   0. 
 6                     3.65931   0.73319   0. 
 6                     3.71113  -0.7039    0. 
 6                     0.01264   1.38696   0. 
 6                    -1.2259    0.74289   0. 
 6                    -1.2259   -0.68924   0. 
 6                    -0.01264  -1.38696   0. 
 6                    -2.47715  -1.39616   0. 
 6                    -3.65931  -0.73319   0. 
 6                    -3.71113   0.7039    0. 
 6                    -2.50184   1.45414   0. 
 6                    -2.59622   2.86184   0. 
 6                    -3.82135   3.50304   0. 
 6                    -5.01126   2.75806   0. 
 6                    -4.95053   1.37905   0. 
 6                     2.59622  -2.86184   0. 
 6                     3.82135  -3.50304   0. 
 6                     5.01126  -2.75806   0. 
 6                     4.95053  -1.37905   0. 
 1                     2.4549    2.48096   0. 
 1                     4.5962    1.28042   0. 
 1                     0.06285   2.46895   0. 
 1                    -0.06285  -2.46895   0. 
 1                    -2.4549   -2.48096   0. 
 1                    -4.5962   -1.28042   0. 
 1                    -1.69676   3.46406   0. 
 1                    -3.86096   4.58652   0. 
 1                    -5.97021   3.26361   0. 
 1                    -5.86311   0.79183   0. 
 1                     1.69676  -3.46407   0. 
 1                     3.86096  -4.58652   0. 
 1                     5.97021  -3.26361   0. 
 1                     5.86311  -0.79183   0. 
 
 NAtoms=     36 NQM=     36 NQMF=      0 NMic=      0 NMicF=      0 NTot=     36.
                    Isotopes and Nuclear Properties:
 (Nuclear quadrupole moments (NQMom) in fm**2, nuclear magnetic moments (NMagM)
  in nuclear magnetons)

  Atom         1           2           3           4           5           6           7           8           9          10
 IAtWgt=          12          12          12          12          12          12          12          12          12          12
 AtmWgt=  12.0000000  12.0000000  12.0000000  12.0000000  12.0000000  12.0000000  12.0000000  12.0000000  12.0000000  12.0000000
 NucSpn=           0           0           0           0           0           0           0           0           0           0
 AtZEff=   0.0000000   0.0000000   0.0000000   0.0000000   0.0000000   0.0000000   0.0000000   0.0000000   0.0000000   0.0000000
 NQMom=    0.0000000   0.0000000   0.0000000   0.0000000   0.0000000   0.0000000   0.0000000   0.0000000   0.0000000   0.0000000
 NMagM=    0.0000000   0.0000000   0.0000000   0.0000000   0.0000000   0.0000000   0.0000000   0.0000000   0.0000000   0.0000000

  Atom        11          12          13          14          15          16          17          18          19          20
 IAtWgt=          12          12          12          12          12          12          12          12          12          12
 AtmWgt=  12.0000000  12.0000000  12.0000000  12.0000000  12.0000000  12.0000000  12.0000000  12.0000000  12.0000000  12.0000000
 NucSpn=           0           0           0           0           0           0           0           0           0           0
 AtZEff=   0.0000000   0.0000000   0.0000000   0.0000000   0.0000000   0.0000000   0.0000000   0.0000000   0.0000000   0.0000000
 NQMom=    0.0000000   0.0000000   0.0000000   0.0000000   0.0000000   0.0000000   0.0000000   0.0000000   0.0000000   0.0000000
 NMagM=    0.0000000   0.0000000   0.0000000   0.0000000   0.0000000   0.0000000   0.0000000   0.0000000   0.0000000   0.0000000

  Atom        21          22          23          24          25          26          27          28          29          30
 IAtWgt=          12          12           1           1           1           1           1           1           1           1
 AtmWgt=  12.0000000  12.0000000   1.0078250   1.0078250   1.0078250   1.0078250   1.0078250   1.0078250   1.0078250   1.0078250
 NucSpn=           0           0           1           1           1           1           1           1           1           1
 AtZEff=   0.0000000   0.0000000   0.0000000   0.0000000   0.0000000   0.0000000   0.0000000   0.0000000   0.0000000   0.0000000
 NQMom=    0.0000000   0.0000000   0.0000000   0.0000000   0.0000000   0.0000000   0.0000000   0.0000000   0.0000000   0.0000000
 NMagM=    0.0000000   0.0000000   2.7928460   2.7928460   2.7928460   2.7928460   2.7928460   2.7928460   2.7928460   2.7928460

  Atom        31          32          33          34          35          36
 IAtWgt=           1           1           1           1           1           1
 AtmWgt=   1.0078250   1.0078250   1.0078250   1.0078250   1.0078250   1.0078250
 NucSpn=           1           1           1           1           1           1
 AtZEff=   0.0000000   0.0000000   0.0000000   0.0000000   0.0000000   0.0000000
 NQMom=    0.0000000   0.0000000   0.0000000   0.0000000   0.0000000   0.0000000
 NMagM=    2.7928460   2.7928460   2.7928460   2.7928460   2.7928460   2.7928460
 Leave Link  101 at Wed Dec 22 16:31:26 2021, MaxMem=  996147200 cpu:       0.5
 (Enter /apps/software//g09/l202.exe)
                          Input orientation:                          
 ---------------------------------------------------------------------
 Center     Atomic      Atomic             Coordinates (Angstroms)
 Number     Number       Type             X           Y           Z
 ---------------------------------------------------------------------
      1          6           0        2.501838   -1.454140    0.000000
      2          6           0        1.225895   -0.742886    0.000000
      3          6           0        1.225895    0.689244    0.000000
      4          6           0        2.477150    1.396160    0.000000
      5          6           0        3.659312    0.733187    0.000000
      6          6           0        3.711133   -0.703904    0.000000
      7          6           0        0.012636    1.386960    0.000000
      8          6           0       -1.225895    0.742886    0.000000
      9          6           0       -1.225895   -0.689244    0.000000
     10          6           0       -0.012636   -1.386960    0.000000
     11          6           0       -2.477150   -1.396161    0.000000
     12          6           0       -3.659313   -0.733187    0.000000
     13          6           0       -3.711133    0.703904    0.000000
     14          6           0       -2.501838    1.454140    0.000000
     15          6           0       -2.596215    2.861840    0.000000
     16          6           0       -3.821352    3.503043    0.000000
     17          6           0       -5.011256    2.758063    0.000000
     18          6           0       -4.950532    1.379052    0.000000
     19          6           0        2.596216   -2.861840    0.000000
     20          6           0        3.821352   -3.503043    0.000000
     21          6           0        5.011256   -2.758063    0.000000
     22          6           0        4.950532   -1.379052    0.000000
     23          1           0        2.454897    2.480962    0.000000
     24          1           0        4.596202    1.280419    0.000000
     25          1           0        0.062850    2.468952    0.000000
     26          1           0       -0.062850   -2.468952    0.000000
     27          1           0       -2.454898   -2.480962    0.000000
     28          1           0       -4.596202   -1.280419    0.000000
     29          1           0       -1.696759    3.464064    0.000000
     30          1           0       -3.860955    4.586524    0.000000
     31          1           0       -5.970211    3.263613    0.000000
     32          1           0       -5.863105    0.791827    0.000000
     33          1           0        1.696760   -3.464065    0.000000
     34          1           0        3.860955   -4.586523    0.000000
     35          1           0        5.970212   -3.263612    0.000000
     36          1           0        5.863105   -0.791827    0.000000
 ---------------------------------------------------------------------
                    Distance matrix (angstroms):
                    1          2          3          4          5
     1  C    0.000000
     2  C    1.460792   0.000000
     3  C    2.494419   1.432130   0.000000
     4  C    2.850407   2.478136   1.437139   0.000000
     5  C    2.474701   2.846104   2.433814   1.355375   0.000000
     6  C    1.423112   2.485544   2.849082   2.435772   1.438025
     7  C    3.777297   2.451171   1.399573   2.464531   3.704816
     8  C    4.326999   2.866844   2.452377   3.760227   4.885217
     9  C    3.805399   2.452377   2.812739   4.249877   5.088080
    10  C    2.515371   1.395991   2.417557   3.734273   4.240074
    11  C    4.979326   3.760227   4.249877   5.687015   6.495405
    12  C    6.203189   4.885218   5.088081   6.495406   7.464082
    13  C    6.577094   5.144652   4.937050   6.226882   7.370503
    14  C    5.787475   4.326999   3.805399   4.979326   6.203188
    15  C    6.679658   5.253815   4.396442   5.280838   6.607782
    16  C    8.034699   6.595651   5.778596   6.641542   7.976994
    17  C    8.613317   7.152531   6.571306   7.611242   8.903868
    18  C    7.972753   6.530763   6.214828   7.427702   8.634035
    19  C    1.410860   2.523439   3.806308   4.259664   3.748919
    20  C    2.437031   3.788781   4.930686   5.080263   4.239328
    21  C    2.827966   4.288344   5.119852   4.866134   3.743872
    22  C    2.449845   3.778575   4.260372   3.717448   2.475642
    23  H    3.935382   3.450165   2.172717   1.085030   2.122577
    24  H    3.444441   3.930996   3.421762   2.122210   1.085000
    25  H    4.619449   3.415930   2.126037   2.641917   3.993422
    26  H    2.758164   2.154105   3.411021   4.625007   4.910009
    27  H    5.061975   4.070522   4.857823   6.273530   6.907555
    28  H    7.100166   5.846859   6.146250   7.562829   8.497536
    29  H    6.466602   5.122532   4.030078   4.658084   6.012087
    30  H    8.773526   7.367405   6.408185   7.095773   8.450007
    31  H    9.697051   8.236260   7.642730   8.651317   9.956444
    32  H    8.661215   7.253224   7.089742   8.362121   9.522598
    33  H    2.165167   2.761617   4.179915   4.922479   4.633415
    34  H    3.414531   4.660160   5.897225   6.140636   5.323530
    35  H    3.912008   5.372393   6.175242   5.823655   4.616780
    36  H    3.425898   4.637468   4.867986   4.031374   2.679995
                    6          7          8          9         10
     6  C    0.000000
     7  C    4.248599   0.000000
     8  C    5.144652   1.395991   0.000000
     9  C    4.937050   2.417557   1.432130   0.000000
    10  C    3.785898   2.774035   2.451171   1.399573   0.000000
    11  C    6.226883   3.734273   2.478137   1.437140   2.464531
    12  C    7.370504   4.240075   2.846105   2.433815   3.704817
    13  C    7.554598   3.785898   2.485544   2.849082   4.248599
    14  C    6.577094   2.515371   1.460792   2.494419   3.777297
    15  C    7.245493   2.996894   2.523439   3.806307   4.972643
    16  C    8.627673   4.379186   3.788781   4.930686   6.198262
    17  C    9.384311   5.207630   4.288344   5.119852   6.493644
    18  C    8.908600   4.963174   3.778575   4.260372   5.659827
    19  C    2.428936   4.972644   5.253816   4.396442   2.996895
    20  C    2.801308   6.198262   6.595651   5.778596   4.379186
    21  C    2.431026   6.493644   7.152531   6.571306   5.207630
    22  C    1.411359   5.659827   6.530763   6.214828   4.963174
    23  H    3.423668   2.676094   4.070521   4.857822   4.587978
    24  H    2.172760   4.584804   5.846859   6.146250   5.325063
    25  H    4.834975   1.083157   2.154105   3.411021   3.856651
    26  H    4.166334   3.856651   3.415930   2.126037   1.083157
    27  H    6.416999   4.587978   3.450166   2.172718   2.676095
    28  H    8.327316   5.325063   3.930996   3.421762   4.584804
    29  H    6.827683   2.690054   2.761616   4.179914   5.135047
    30  H    9.237161   5.024133   4.660160   5.897226   7.105777
    31  H   10.462773   6.270270   5.372392   6.175242   7.557812
    32  H    9.690369   5.905804   4.637468   4.867986   6.243004
    33  H    3.417044   5.135048   5.122533   4.030080   2.690056
    34  H    3.885509   7.105776   7.367404   6.408184   5.024133
    35  H    3.414022   7.557813   8.236260   7.642730   6.270271
    36  H    2.153767   6.243004   7.253224   7.089742   5.905804
                   11         12         13         14         15
    11  C    0.000000
    12  C    1.355376   0.000000
    13  C    2.435772   1.438025   0.000000
    14  C    2.850408   2.474702   1.423112   0.000000
    15  C    4.259665   3.748919   2.428936   1.410860   0.000000
    16  C    5.080264   4.239328   2.801308   2.437031   1.382788
    17  C    4.866135   3.743872   2.431026   2.827966   2.417270
    18  C    3.717449   2.475641   1.411359   2.449845   2.782350
    19  C    5.280839   6.607784   7.245494   6.679659   7.727991
    20  C    6.641542   7.976995   8.627673   8.034699   9.038634
    21  C    7.611242   8.903869   9.384311   8.613317   9.458167
    22  C    7.427702   8.634036   8.908600   7.972753   8.656706
    23  H    6.273529   6.907555   6.416998   5.061974   5.065452
    24  H    7.562829   8.497537   8.327316   7.100166   7.364221
    25  H    4.625008   4.910009   4.166334   2.758164   2.687934
    26  H    2.641917   3.993423   4.834975   4.619449   5.902142
    27  H    1.085029   2.122577   3.423667   3.935382   5.344671
    28  H    2.122211   1.084999   2.172760   3.444441   4.599811
    29  H    4.922479   4.633415   3.417043   2.165167   1.082449
    30  H    6.140638   5.323531   3.885510   3.414532   2.138715
    31  H    5.823656   4.616780   3.414022   3.912008   3.397833
    32  H    4.031375   2.679994   2.153767   3.425898   3.867496
    33  H    4.658085   6.012089   6.827684   6.466604   7.645045
    34  H    7.095772   8.450008   9.237161   8.773525   9.857645
    35  H    8.651318   9.956445  10.462773   9.697052  10.531136
    36  H    8.362121   9.522599   9.690369   8.661215   9.214628
                   16         17         18         19         20
    16  C    0.000000
    17  C    1.403876   0.000000
    18  C    2.405491   1.380347   0.000000
    19  C    9.038635   9.458168   8.656707   0.000000
    20  C   10.368036  10.826653  10.038964   1.382787   0.000000
    21  C   10.826653  11.440209  10.786702   2.417269   1.403876
    22  C   10.038964  10.786702  10.278045   2.782349   2.405491
    23  H    6.358927   7.471293   7.486961   5.344671   6.138038
    24  H    8.706048   9.720426   9.547244   4.599810   4.845813
    25  H    4.019499   5.082336   5.130485   5.902143   7.056278
    26  H    7.056278   7.197806   6.220657   2.687935   4.019499
    27  H    6.138038   5.829438   4.596509   5.065454   6.358928
    28  H    4.845813   4.059755   2.682971   7.364222   8.706048
    29  H    2.124951   3.388853   3.864494   7.645044   8.887639
    30  H    1.084205   2.160200   3.387485   9.857646  11.156116
    31  H    2.162157   1.084055   2.142736  10.531137  11.902199
    32  H    3.394031   2.142832   1.085183   9.214629  10.594084
    33  H    8.887641   9.149446   8.224492   1.082449   2.124950
    34  H   11.156116  11.517772  10.640977   2.138714   1.084204
    35  H   11.902199  12.524105  11.866633   3.397833   2.162158
    36  H   10.594084  11.439119  11.029391   3.867495   3.394031
                   21         22         23         24         25
    21  C    0.000000
    22  C    1.380347   0.000000
    23  H    5.829439   4.596510   0.000000
    24  H    4.059755   2.682971   2.454891   0.000000
    25  H    7.197806   6.220657   2.392077   4.686565   0.000000
    26  H    5.082336   5.130485   5.553440   5.980347   4.939504
    27  H    7.471294   7.486962   6.980457   7.991621   5.553441
    28  H    9.720426   9.547244   7.991620   9.542441   5.980347
    29  H    9.149444   8.224491   4.266467   6.661056   2.021502
    30  H   11.517773  10.640977   6.657580   9.080409   4.458739
    31  H   12.524105  11.866632   8.461382  10.750914   6.085171
    32  H   11.439119  11.029391   8.487776  10.470713   6.158709
    33  H    3.388853   3.864494   5.993173   5.560296   6.153889
    34  H    2.160199   3.387484   7.205994   5.912833   8.012823
    35  H    1.084056   2.142735   6.734803   4.747222   8.231599
    36  H    2.142832   1.085183   4.725149   2.428836   6.653994
                   26         27         28         29         30
    26  H    0.000000
    27  H    2.392078   0.000000
    28  H    4.686565   2.454890   0.000000
    29  H    6.153888   5.993172   5.560296   0.000000
    30  H    8.012824   7.205994   5.912834   2.437962   0.000000
    31  H    8.231599   6.734803   4.747223   4.278151   2.489790
    32  H    6.653994   4.725148   2.428836   4.949676   4.290493
    33  H    2.021504   4.266469   6.661057   7.714593   9.782647
    34  H    4.458739   6.657581   9.080409   9.782645  11.990525
    35  H    6.085172   8.461384  10.750914  10.200199  12.580798
    36  H    6.158709   8.487777  10.470713   8.675491  11.112336
                   31         32         33         34         35
    31  H    0.000000
    32  H    2.474105   0.000000
    33  H   10.200201   8.675493   0.000000
    34  H   12.580797  11.112335   2.437961   0.000000
    35  H   13.608026  12.508956   4.278151   2.489791   0.000000
    36  H   12.508955  11.832665   4.949675   4.290492   2.474104
                   36
    36  H    0.000000
 Stoichiometry    C22H14
 Framework group  CS[SG(C22H14)]
 Deg. of freedom    69
 Full point group                 CS      NOp   2
 Largest Abelian subgroup         CS      NOp   2
 Largest concise Abelian subgroup C1      NOp   1
                         Standard orientation:                         
 ---------------------------------------------------------------------
 Center     Atomic      Atomic             Coordinates (Angstroms)
 Number     Number       Type             X           Y           Z
 ---------------------------------------------------------------------
      1          6           0        0.383383   -2.868228    0.000000
      2          6           0        0.215896   -1.417070    0.000000
      3          6           0       -1.106712   -0.867793    0.000000
      4          6           0       -2.239471   -1.752229    0.000000
      5          6           0       -2.080603   -3.098260    0.000000
      6          6           0       -0.773289   -3.697298    0.000000
      7          6           0       -1.285739    0.520283    0.000000
      8          6           0       -0.215896    1.417070    0.000000
      9          6           0        1.106712    0.867793    0.000000
     10          6           0        1.285738   -0.520283    0.000000
     11          6           0        2.239472    1.752228    0.000000
     12          6           0        2.080604    3.098261    0.000000
     13          6           0        0.773289    3.697298    0.000000
     14          6           0       -0.383383    2.868228    0.000000
     15          6           0       -1.647232    3.495295    0.000000
     16          6           0       -1.769512    4.872665    0.000000
     17          6           0       -0.625131    5.685843    0.000000
     18          6           0        0.625130    5.100859    0.000000
     19          6           0        1.647232   -3.495296    0.000000
     20          6           0        1.769512   -4.872665    0.000000
     21          6           0        0.625130   -5.685843    0.000000
     22          6           0       -0.625131   -5.100859    0.000000
     23          1           0       -3.232778   -1.315614    0.000000
     24          1           0       -2.945319   -3.753617    0.000000
     25          1           0       -2.304244    0.888895    0.000000
     26          1           0        2.304244   -0.888894    0.000000
     27          1           0        3.232778    1.315615    0.000000
     28          1           0        2.945319    3.753617    0.000000
     29          1           0       -2.548377    2.895601    0.000000
     30          1           0       -2.754944    5.324796    0.000000
     31          1           0       -0.724222    6.765360    0.000000
     32          1           0        1.517454    5.718420    0.000000
     33          1           0        2.548378   -2.895602    0.000000
     34          1           0        2.754943   -5.324796    0.000000
     35          1           0        0.724221   -6.765360    0.000000
     36          1           0       -1.517454   -5.718420    0.000000
 ---------------------------------------------------------------------
 Rotational constants (GHZ):      0.9141643      0.1471992      0.1267843
 Leave Link  202 at Wed Dec 22 16:31:26 2021, MaxMem=  996147200 cpu:       0.4
 (Enter /apps/software//g09/l301.exe)
 Standard basis: 6-311++G(d,p) (5D, 7F)
 Ernie: Thresh=  0.10000D-02 Tol=  0.10000D-05 Strict=F.
 There are   436 symmetry adapted basis functions of A'  symmetry.
 There are   146 symmetry adapted basis functions of A"  symmetry.
 Integral buffers will be    131072 words long.
 Raffenetti 1 integral format.
 Two-electron integral symmetry is turned on.
   582 basis functions,   918 primitive gaussians,   604 cartesian basis functions
    73 alpha electrons       73 beta electrons
       nuclear repulsion energy      1527.6196296581 Hartrees.
 IExCor=    0 DFT=F Ex=HF Corr=None ExCW=0 ScaHFX=  1.000000
 ScaDFX=  1.000000  1.000000  1.000000  1.000000 ScalE2=  1.000000  1.000000
 IRadAn=      0 IRanWt=     -1 IRanGd=            0 ICorTp=0
 NAtoms=   36 NActive=   36 NUniq=   36 SFac= 7.50D-01 NAtFMM=   80 NAOKFM=F Big=F
 Leave Link  301 at Wed Dec 22 16:31:26 2021, MaxMem=  996147200 cpu:       0.5
 (Enter /apps/software//g09/l302.exe)
 NPDir=0 NMtPBC=     1 NCelOv=     1 NCel=       1 NClECP=     1 NCelD=      1
         NCelK=      1 NCelE2=     1 NClLst=     1 CellRange=     0.0.
 One-electron integrals computed using PRISM.
 NBasis=   582 RedAO= T  NBF=   436   146
 NBsUse=   569 1.00D-06 NBFU=   423   146
 Leave Link  302 at Wed Dec 22 16:31:27 2021, MaxMem=  996147200 cpu:       6.6
 (Enter /apps/software//g09/l303.exe)
 DipDrv:  MaxL=1.
 Leave Link  303 at Wed Dec 22 16:31:27 2021, MaxMem=  996147200 cpu:       1.3
 (Enter /apps/software//g09/l401.exe)
 Harris functional with IExCor=  205 diagonalized for initial guess.
 ExpMin= 3.60D-02 ExpMax= 4.56D+03 ExpMxC= 6.82D+02 IAcc=3 IRadAn=         0 AccDes= 0.00D+00
 HarFok:  IExCor=  205 AccDes= 0.00D+00 IRadAn=         0 IDoV= 1
 ScaDFX=  1.000000  1.000000  1.000000  1.000000
 FoFCou: FMM=F IPFlag=           0 FMFlag=      100000 FMFlg1=           0
         NFxFlg=           0 DoJE=T BraDBF=F KetDBF=T FulRan=T
         Omega=  0.000000  0.000000  1.000000  0.000000  0.000000 ICntrl=     500 IOpCl=  0
         NMat0=    1 NMatS0=    1 NMatT0=    0 NMatD0=    1 NMtDS0=    0 NMtDT0=    0
         I1Cent=           4 NGrid=           0.
 Petite list used in FoFCou.
 Harris En= -842.678104154436    
 Initial guess orbital symmetries:
       Occupied  (A') (A') (A') (A') (A') (A') (A') (A') (A') (A')
                 (A') (A') (A') (A') (A') (A') (A') (A') (A') (A')
                 (A') (A') (A') (A') (A') (A') (A') (A') (A') (A')
                 (A') (A') (A') (A') (A') (A') (A') (A') (A') (A')
                 (A') (A') (A') (A') (A') (A') (A') (A') (A') (A')
                 (A') (A') (A') (A') (A') (A") (A') (A') (A") (A')
                 (A') (A") (A') (A') (A') (A") (A") (A") (A") (A")
                 (A") (A") (A")
       Virtual   (A") (A") (A") (A") (A") (A") (A") (A") (A') (A')
                 (A") (A') (A') (A') (A') (A') (A') (A') (A') (A")
                 (A') (A") (A') (A') (A') (A") (A') (A") (A') (A')
                 (A") (A") (A') (A') (A") (A') (A') (A') (A') (A")
                 (A') (A') (A') (A') (A") (A') (A") (A') (A') (A')
                 (A') (A') (A') (A') (A") (A") (A') (A') (A') (A")
                 (A') (A') (A') (A') (A') (A') (A') (A") (A") (A')
                 (A') (A') (A') (A") (A') (A') (A') (A") (A') (A")
                 (A') (A') (A') (A') (A') (A") (A') (A") (A') (A')
                 (A') (A") (A') (A') (A') (A') (A") (A') (A') (A')
                 (A') (A') (A') (A') (A') (A") (A") (A') (A') (A')
                 (A') (A') (A') (A') (A') (A') (A') (A') (A') (A')
                 (A') (A') (A') (A') (A') (A') (A') (A') (A') (A')
                 (A') (A') (A') (A') (A') (A") (A') (A') (A") (A')
                 (A') (A") (A') (A') (A") (A") (A') (A') (A") (A')
                 (A") (A') (A') (A') (A") (A') (A") (A') (A") (A")
                 (A') (A') (A') (A") (A") (A') (A") (A') (A') (A')
                 (A') (A') (A") (A') (A") (A') (A") (A") (A') (A")
                 (A') (A') (A') (A") (A') (A') (A') (A') (A') (A")
                 (A') (A') (A") (A') (A') (A') (A') (A') (A') (A')
                 (A') (A") (A') (A') (A') (A') (A") (A') (A') (A')
                 (A') (A") (A') (A') (A") (A') (A') (A') (A') (A')
                 (A') (A") (A") (A') (A') (A') (A") (A') (A") (A")
                 (A') (A") (A") (A') (A") (A") (A') (A") (A') (A")
                 (A') (A") (A') (A") (A") (A') (A') (A') (A') (A')
                 (A') (A') (A') (A') (A') (A') (A') (A') (A') (A')
                 (A") (A') (A") (A') (A') (A') (A') (A") (A') (A")
                 (A') (A') (A') (A") (A') (A") (A') (A') (A") (A')
                 (A") (A") (A') (A') (A") (A') (A') (A") (A') (A')
                 (A') (A') (A') (A') (A") (A') (A") (A") (A") (A")
                 (A') (A") (A") (A') (A') (A') (A") (A") (A') (A")
                 (A') (A") (A') (A') (A") (A") (A') (A') (A') (A")
                 (A') (A') (A") (A') (A') (A') (A') (A") (A') (A")
                 (A') (A') (A') (A') (A") (A') (A") (A') (A') (A")
                 (A') (A') (A') (A") (A') (A") (A') (A") (A") (A')
                 (A') (A') (A") (A') (A') (A') (A") (A") (A') (A')
                 (A') (A") (A') (A") (A') (A') (A') (A') (A') (A')
                 (A') (A') (A") (A") (A') (A") (A') (A') (A") (A")
                 (A') (A') (A') (A') (A") (A') (A') (A") (A") (A')
                 (A') (A") (A') (A') (A') (A') (A') (A') (A") (A')
                 (A') (A') (A") (A") (A') (A') (A") (A') (A') (A")
                 (A") (A') (A') (A') (A') (A") (A") (A') (A') (A")
                 (A") (A") (A') (A") (A") (A') (A') (A') (A') (A')
                 (A') (A') (A') (A') (A') (A') (A') (A') (A') (A')
                 (A') (A') (A') (A') (A') (A') (A') (A') (A') (A')
                 (A') (A') (A') (A') (A') (A') (A') (A') (A') (A')
                 (A') (A') (A') (A') (A') (A') (A') (A') (A') (A')
                 (A') (A') (A') (A') (A') (A') (A') (A') (A') (A')
                 (A') (A') (A') (A') (A') (A') (A') (A') (A') (A')
                 (A') (A') (A') (A') (A') (A')
 The electronic state of the initial guess is 1-A'.
 Leave Link  401 at Wed Dec 22 16:31:30 2021, MaxMem=  996147200 cpu:      23.3
 (Enter /apps/software//g09/l502.exe)
 Closed shell SCF:
 Requested convergence on RMS density matrix=1.00D-08 within 128 cycles.
 Requested convergence on MAX density matrix=1.00D-06.
 Requested convergence on             energy=1.00D-06.
 No special actions if energy rises.
 Using DIIS extrapolation, IDIIS=  1040.
 Integral symmetry usage will be decided dynamically.
 IEnd=     1123316 IEndB=     1123316 NGot=   996147200 MDV=   995405945
 LenX=   995405945 LenY=   995040525
 Fock matrices will be formed incrementally for  20 cycles.

 Cycle   1  Pass 0  IDiag  1:
 FoFCou: FMM=F IPFlag=           0 FMFlag=      100000 FMFlg1=           0
         NFxFlg=           0 DoJE=F BraDBF=F KetDBF=F FulRan=T
         Omega=  0.000000  0.000000  1.000000  0.000000  0.000000 ICntrl=       0 IOpCl=  0
         NMat0=    1 NMatS0=    1 NMatT0=    0 NMatD0=    1 NMtDS0=    0 NMtDT0=    0
         I1Cent=           0 NGrid=           0.
 Petite list used in FoFCou.
 E= -840.596431952722    
 DIIS: error= 6.80D-02 at cycle   1 NSaved=   1.
 NSaved= 1 IEnMin= 1 EnMin= -840.596431952722     IErMin= 1 ErrMin= 6.80D-02
 ErrMax= 6.80D-02 EMaxC= 1.00D-01 BMatC= 1.69D+00 BMatP= 1.69D+00
 IDIUse=3 WtCom= 3.20D-01 WtEn= 6.80D-01
 Coeff-Com:  0.100D+01
 Coeff-En:   0.100D+01
 Coeff:      0.100D+01
 Gap=     0.280 Goal=   None    Shift=    0.000
 GapD=    0.280 DampG=1.000 DampE=0.500 DampFc=0.5000 IDamp=-1.
 Damping current iteration by 5.00D-01
 RMSDP=2.07D-02 MaxDP=8.39D-01              OVMax= 1.57D-01

 Cycle   2  Pass 0  IDiag  1:
 RMSU=  6.68D-03    CP:  1.07D+00
 E= -841.055490627232     Delta-E=       -0.459058674510 Rises=F Damp=T
 DIIS: error= 2.97D-02 at cycle   2 NSaved=   2.
 NSaved= 2 IEnMin= 2 EnMin= -841.055490627232     IErMin= 2 ErrMin= 2.97D-02
 ErrMax= 2.97D-02 EMaxC= 1.00D-01 BMatC= 4.00D-01 BMatP= 1.69D+00
 IDIUse=3 WtCom= 7.03D-01 WtEn= 2.97D-01
 Coeff-Com: -0.816D+00 0.182D+01
 Coeff-En:   0.000D+00 0.100D+01
 Coeff:     -0.573D+00 0.157D+01
 Gap=     0.308 Goal=   None    Shift=    0.000
 RMSDP=9.59D-03 MaxDP=7.84D-01 DE=-4.59D-01 OVMax= 4.31D-02

 Cycle   3  Pass 0  IDiag  1:
 RMSU=  2.65D-03    CP:  9.25D-01  1.20D+00
 E= -841.477205529713     Delta-E=       -0.421714902480 Rises=F Damp=F
 DIIS: error= 2.70D-03 at cycle   3 NSaved=   3.
 NSaved= 3 IEnMin= 3 EnMin= -841.477205529713     IErMin= 3 ErrMin= 2.70D-03
 ErrMax= 2.70D-03 EMaxC= 1.00D-01 BMatC= 3.23D-03 BMatP= 4.00D-01
 IDIUse=3 WtCom= 9.73D-01 WtEn= 2.70D-02
 Coeff-Com: -0.942D-01 0.153D+00 0.941D+00
 Coeff-En:   0.000D+00 0.000D+00 0.100D+01
 Coeff:     -0.916D-01 0.149D+00 0.942D+00
 Gap=     0.304 Goal=   None    Shift=    0.000
 RMSDP=2.46D-03 MaxDP=1.33D-01 DE=-4.22D-01 OVMax= 1.40D-02

 Cycle   4  Pass 0  IDiag  1:
 RMSU=  1.13D-03    CP:  8.94D-01  1.17D+00  9.40D-01
 E= -841.480499942755     Delta-E=       -0.003294413042 Rises=F Damp=F
 DIIS: error= 1.35D-03 at cycle   4 NSaved=   4.
 NSaved= 4 IEnMin= 4 EnMin= -841.480499942755     IErMin= 4 ErrMin= 1.35D-03
 ErrMax= 1.35D-03 EMaxC= 1.00D-01 BMatC= 3.18D-04 BMatP= 3.23D-03
 IDIUse=3 WtCom= 9.86D-01 WtEn= 1.35D-02
 Coeff-Com: -0.385D-02-0.318D-02 0.196D+00 0.811D+00
 Coeff-En:   0.000D+00 0.000D+00 0.000D+00 0.100D+01
 Coeff:     -0.380D-02-0.314D-02 0.193D+00 0.814D+00
 Gap=     0.301 Goal=   None    Shift=    0.000
 RMSDP=3.48D-04 MaxDP=1.92D-02 DE=-3.29D-03 OVMax= 6.83D-03

 Cycle   5  Pass 0  IDiag  1:
 RMSU=  2.18D-04    CP:  8.94D-01  1.17D+00  9.80D-01  1.01D+00
 E= -841.480900205414     Delta-E=       -0.000400262659 Rises=F Damp=F
 DIIS: error= 5.88D-04 at cycle   5 NSaved=   5.
 NSaved= 5 IEnMin= 5 EnMin= -841.480900205414     IErMin= 5 ErrMin= 5.88D-04
 ErrMax= 5.88D-04 EMaxC= 1.00D-01 BMatC= 4.19D-05 BMatP= 3.18D-04
 IDIUse=3 WtCom= 9.94D-01 WtEn= 5.88D-03
 Coeff-Com:  0.884D-02-0.159D-01-0.710D-01 0.145D+00 0.933D+00
 Coeff-En:   0.000D+00 0.000D+00 0.000D+00 0.000D+00 0.100D+01
 Coeff:      0.878D-02-0.158D-01-0.706D-01 0.144D+00 0.934D+00
 Gap=     0.302 Goal=   None    Shift=    0.000
 RMSDP=1.54D-04 MaxDP=7.55D-03 DE=-4.00D-04 OVMax= 3.68D-03

 Cycle   6  Pass 0  IDiag  1:
 RMSU=  5.84D-05    CP:  8.93D-01  1.17D+00  9.89D-01  1.08D+00  9.72D-01
 E= -841.480980674806     Delta-E=       -0.000080469393 Rises=F Damp=F
 DIIS: error= 2.62D-04 at cycle   6 NSaved=   6.
 NSaved= 6 IEnMin= 6 EnMin= -841.480980674806     IErMin= 6 ErrMin= 2.62D-04
 ErrMax= 2.62D-04 EMaxC= 1.00D-01 BMatC= 5.00D-06 BMatP= 4.19D-05
 IDIUse=3 WtCom= 9.97D-01 WtEn= 2.62D-03
 Coeff-Com:  0.284D-02-0.426D-02-0.360D-01-0.459D-01 0.216D+00 0.867D+00
 Coeff-En:   0.000D+00 0.000D+00 0.000D+00 0.000D+00 0.000D+00 0.100D+01
 Coeff:      0.283D-02-0.425D-02-0.359D-01-0.458D-01 0.216D+00 0.867D+00
 Gap=     0.302 Goal=   None    Shift=    0.000
 RMSDP=7.97D-05 MaxDP=3.96D-03 DE=-8.05D-05 OVMax= 1.48D-03

 Cycle   7  Pass 0  IDiag  1:
 RMSU=  2.26D-05    CP:  8.93D-01  1.17D+00  9.90D-01  1.11D+00  1.09D+00
                    CP:  1.13D+00
 E= -841.480992724427     Delta-E=       -0.000012049621 Rises=F Damp=F
 DIIS: error= 8.36D-05 at cycle   7 NSaved=   7.
 NSaved= 7 IEnMin= 7 EnMin= -841.480992724427     IErMin= 7 ErrMin= 8.36D-05
 ErrMax= 8.36D-05 EMaxC= 1.00D-01 BMatC= 6.15D-07 BMatP= 5.00D-06
 IDIUse=1 WtCom= 1.00D+00 WtEn= 0.00D+00
 Coeff-Com: -0.608D-03 0.124D-02 0.248D-02-0.245D-01-0.716D-01 0.123D+00
 Coeff-Com:  0.970D+00
 Coeff:     -0.608D-03 0.124D-02 0.248D-02-0.245D-01-0.716D-01 0.123D+00
 Coeff:      0.970D+00
 Gap=     0.303 Goal=   None    Shift=    0.000
 RMSDP=1.96D-05 MaxDP=6.98D-04 DE=-1.20D-05 OVMax= 6.57D-04

 Cycle   8  Pass 0  IDiag  1:
 RMSU=  8.99D-06    CP:  8.93D-01  1.17D+00  9.90D-01  1.12D+00  1.10D+00
                    CP:  1.22D+00  1.16D+00
 E= -841.480995087004     Delta-E=       -0.000002362577 Rises=F Damp=F
 DIIS: error= 3.55D-05 at cycle   8 NSaved=   8.
 NSaved= 8 IEnMin= 8 EnMin= -841.480995087004     IErMin= 8 ErrMin= 3.55D-05
 ErrMax= 3.55D-05 EMaxC= 1.00D-01 BMatC= 8.88D-08 BMatP= 6.15D-07
 IDIUse=1 WtCom= 1.00D+00 WtEn= 0.00D+00
 Coeff-Com: -0.477D-03 0.719D-03 0.586D-02 0.119D-01-0.269D-01-0.183D+00
 Coeff-Com: -0.125D+00 0.132D+01
 Coeff:     -0.477D-03 0.719D-03 0.586D-02 0.119D-01-0.269D-01-0.183D+00
 Coeff:     -0.125D+00 0.132D+01
 Gap=     0.303 Goal=   None    Shift=    0.000
 RMSDP=1.52D-05 MaxDP=8.36D-04 DE=-2.36D-06 OVMax= 4.12D-04

 Cycle   9  Pass 0  IDiag  1:
 RMSU=  1.90D-06    CP:  8.94D-01  1.17D+00  9.90D-01  1.12D+00  1.10D+00
                    CP:  1.27D+00  1.39D+00  1.35D+00
 E= -841.480995574108     Delta-E=       -0.000000487104 Rises=F Damp=F
 DIIS: error= 7.81D-06 at cycle   9 NSaved=   9.
 NSaved= 9 IEnMin= 9 EnMin= -841.480995574108     IErMin= 9 ErrMin= 7.81D-06
 ErrMax= 7.81D-06 EMaxC= 1.00D-01 BMatC= 6.53D-09 BMatP= 8.88D-08
 IDIUse=1 WtCom= 1.00D+00 WtEn= 0.00D+00
 Coeff-Com: -0.883D-04 0.115D-03 0.127D-02 0.439D-02-0.239D-02-0.512D-01
 Coeff-Com: -0.927D-01 0.308D+00 0.833D+00
 Coeff:     -0.883D-04 0.115D-03 0.127D-02 0.439D-02-0.239D-02-0.512D-01
 Coeff:     -0.927D-01 0.308D+00 0.833D+00
 Gap=     0.303 Goal=   None    Shift=    0.000
 RMSDP=2.25D-06 MaxDP=8.45D-05 DE=-4.87D-07 OVMax= 6.23D-05

 Initial convergence to 1.0D-05 achieved.  Increase integral accuracy.
 Cycle  10  Pass 1  IDiag  1:
 E= -841.480995590243     Delta-E=       -0.000000016135 Rises=F Damp=F
 DIIS: error= 3.35D-06 at cycle   1 NSaved=   1.
 NSaved= 1 IEnMin= 1 EnMin= -841.480995590243     IErMin= 1 ErrMin= 3.35D-06
 ErrMax= 3.35D-06 EMaxC= 1.00D-01 BMatC= 8.95D-10 BMatP= 8.95D-10
 IDIUse=1 WtCom= 1.00D+00 WtEn= 0.00D+00
 Coeff-Com:  0.100D+01
 Coeff:      0.100D+01
 Gap=     0.303 Goal=   None    Shift=    0.000
 RMSDP=2.25D-06 MaxDP=8.45D-05 DE=-1.61D-08 OVMax= 1.86D-05

 Cycle  11  Pass 1  IDiag  1:
 RMSU=  1.18D-06    CP:  1.00D+00
 E= -841.480995592525     Delta-E=       -0.000000002282 Rises=F Damp=F
 DIIS: error= 2.15D-06 at cycle   2 NSaved=   2.
 NSaved= 2 IEnMin= 2 EnMin= -841.480995592525     IErMin= 2 ErrMin= 2.15D-06
 ErrMax= 2.15D-06 EMaxC= 1.00D-01 BMatC= 4.13D-10 BMatP= 8.95D-10
 IDIUse=1 WtCom= 1.00D+00 WtEn= 0.00D+00
 Coeff-Com:  0.320D+00 0.680D+00
 Coeff:      0.320D+00 0.680D+00
 Gap=     0.303 Goal=   None    Shift=    0.000
 RMSDP=3.94D-07 MaxDP=1.77D-05 DE=-2.28D-09 OVMax= 9.26D-06

 Cycle  12  Pass 1  IDiag  1:
 RMSU=  2.31D-07    CP:  1.00D+00  1.03D+00
 E= -841.480995593263     Delta-E=       -0.000000000739 Rises=F Damp=F
 DIIS: error= 1.29D-06 at cycle   3 NSaved=   3.
 NSaved= 3 IEnMin= 3 EnMin= -841.480995593263     IErMin= 3 ErrMin= 1.29D-06
 ErrMax= 1.29D-06 EMaxC= 1.00D-01 BMatC= 1.20D-10 BMatP= 4.13D-10
 IDIUse=1 WtCom= 1.00D+00 WtEn= 0.00D+00
 Coeff-Com: -0.606D+00-0.424D+00 0.203D+01
 Coeff:     -0.606D+00-0.424D+00 0.203D+01
 Gap=     0.303 Goal=   None    Shift=    0.000
 RMSDP=4.17D-07 MaxDP=2.90D-05 DE=-7.39D-10 OVMax= 1.93D-05

 Cycle  13  Pass 1  IDiag  1:
 RMSU=  1.44D-07    CP:  1.00D+00  1.20D+00  1.48D+00
 E= -841.480995594231     Delta-E=       -0.000000000967 Rises=F Damp=F
 DIIS: error= 3.24D-07 at cycle   4 NSaved=   4.
 NSaved= 4 IEnMin= 4 EnMin= -841.480995594231     IErMin= 4 ErrMin= 3.24D-07
 ErrMax= 3.24D-07 EMaxC= 1.00D-01 BMatC= 1.20D-11 BMatP= 1.20D-10
 IDIUse=1 WtCom= 1.00D+00 WtEn= 0.00D+00
 Coeff-Com: -0.166D+00-0.178D+00 0.439D+00 0.905D+00
 Coeff:     -0.166D+00-0.178D+00 0.439D+00 0.905D+00
 Gap=     0.303 Goal=   None    Shift=    0.000
 RMSDP=6.41D-08 MaxDP=2.62D-06 DE=-9.67D-10 OVMax= 3.83D-06

 Cycle  14  Pass 1  IDiag  1:
 RMSU=  3.16D-08    CP:  1.00D+00  1.20D+00  1.50D+00  1.20D+00
 E= -841.480995594254     Delta-E=       -0.000000000023 Rises=F Damp=F
 DIIS: error= 1.18D-07 at cycle   5 NSaved=   5.
 NSaved= 5 IEnMin= 5 EnMin= -841.480995594254     IErMin= 5 ErrMin= 1.18D-07
 ErrMax= 1.18D-07 EMaxC= 1.00D-01 BMatC= 1.66D-12 BMatP= 1.20D-11
 IDIUse=1 WtCom= 1.00D+00 WtEn= 0.00D+00
 Coeff-Com:  0.125D+00 0.752D-01-0.422D+00 0.679D-01 0.115D+01
 Coeff:      0.125D+00 0.752D-01-0.422D+00 0.679D-01 0.115D+01
 Gap=     0.303 Goal=   None    Shift=    0.000
 RMSDP=8.48D-08 MaxDP=5.08D-06 DE=-2.32D-11 OVMax= 1.63D-06

 Cycle  15  Pass 1  IDiag  1:
 RMSU=  2.15D-08    CP:  1.00D+00  1.17D+00  1.44D+00  1.33D+00  1.28D+00
 E= -841.480995594266     Delta-E=       -0.000000000012 Rises=F Damp=F
 DIIS: error= 3.48D-08 at cycle   6 NSaved=   6.
 NSaved= 6 IEnMin= 6 EnMin= -841.480995594266     IErMin= 6 ErrMin= 3.48D-08
 ErrMax= 3.48D-08 EMaxC= 1.00D-01 BMatC= 1.37D-13 BMatP= 1.66D-12
 IDIUse=1 WtCom= 1.00D+00 WtEn= 0.00D+00
 Coeff-Com:  0.341D-01 0.249D-01-0.104D+00-0.553D-01 0.234D+00 0.866D+00
 Coeff:      0.341D-01 0.249D-01-0.104D+00-0.553D-01 0.234D+00 0.866D+00
 Gap=     0.303 Goal=   None    Shift=    0.000
 RMSDP=8.47D-09 MaxDP=2.99D-07 DE=-1.23D-11 OVMax= 2.18D-07

 SCF Done:  E(RHF) =  -841.480995594     A.U. after   15 cycles
             Convg  =    0.8468D-08             -V/T =  2.0012
 KE= 8.404889305184D+02 PE=-5.013512116411D+03 EE= 1.803922560641D+03
 Leave Link  502 at Wed Dec 22 16:41:30 2021, MaxMem=  996147200 cpu:    6004.1
 (Enter /apps/software//g09/l801.exe)
 ExpMin= 3.60D-02 ExpMax= 4.56D+03 ExpMxC= 6.82D+02 IAcc=3 IRadAn=         5 AccDes= 0.00D+00
 HarFok:  IExCor=  205 AccDes= 0.00D+00 IRadAn=         5 IDoV=-2
 ScaDFX=  1.000000  1.000000  1.000000  1.000000
 Largest valence mixing into a core orbital is  1.47D-04
 Largest core mixing into a valence orbital is  4.59D-05
 Range of M.O.s used for correlation:    23   569
 NBasis=   582 NAE=    73 NBE=    73 NFC=    22 NFV=     0
 NROrb=    547 NOA=    51 NOB=    51 NVA=   496 NVB=   496

 **** Warning!!: The largest alpha MO coefficient is  0.15901175D+03

 Leave Link  801 at Wed Dec 22 16:41:31 2021, MaxMem=  996147200 cpu:       3.4
 (Enter /apps/software//g09/l906.exe)
 Frozen-core derivative calculation, NFC=  22 NFV=   0.
 FulOut=F Deriv=T AODrv=F NAtomX=    36
   MMem=          10  MDisk=          51 MDiskD=          51
  W3Min=    25088348 MinDsk=    29826898 NBas6D=         604
 NBas2D=      183610    NTT=      182710    LW2=     2040000
    MDV=   992527888 MDiskM=       22777 NBas2p=      143868
 Disk-based method using ON**2 memory for 51 occupieds at a time.
 Estimated scratch disk usage= 18636878916 words.
 IMap=   1   2   3   4   5   6   7   8   9  10  11  12  13  14  15  16  17  18  19  20
 IMap=  21  22  23  24  25  26  27  28  29  30  31  32  33  34  35  36  37  38  39  40
 IMap=  41  42  43  44  45  46  47  48  49  50  51  52  53  54  55  56  57  58  59  60
 IMap=  61  62  63  64  65  66  67  68  69  70  71  72  73
 Actual    scratch disk usage= 17679739460 words.
 JobTyp=1 Pass  1:  I=  23 to  73 NPSUse= 10 ParTrn=T ParDer=T DoDerP=T.
 Spin components of T(2) and E(2):
     alpha-alpha T2 =       0.1647565764D+00 E2=     -0.4116345701D+00
     alpha-beta  T2 =       0.8049487660D+00 E2=     -0.2177331700D+01
     beta-beta   T2 =       0.1647565764D+00 E2=     -0.4116345701D+00
 The integrals were generated   1 times.
 ANorm=    0.1460979780D+01
 E2 =    -0.3000600840D+01 EUMP2 =    -0.84448159643440D+03
 Leave Link  906 at Wed Dec 22 17:15:29 2021, MaxMem=  996147200 cpu:   19719.8
 (Enter /apps/software//g09/l1002.exe)
 Minotr:  Closed shell wavefunction.
          Computing MP2/KS-MP2 derivatives.
          Using Z-Vector for PSCF gradient.
          Skipping F1 and S1 gradient terms here.
          Frozen-core window.
          Direct CPHF calculation.
          Differentiating once with respect to electric field.
                with respect to dipole field.
          Electric field/nuclear overlap derivatives assumed to be zero.
          Using symmetry in CPHF.
          Requested convergence is 1.0D-10 RMS, and 1.0D-09 maximum.
          NewPWx=F KeepS1=T KeepF1=T KeepIn=T MapXYZ=F SortEE=F KeepMc=T.
          MDV=     996146908 using IRadAn=       0.
          Solving linear equations separately, MaxMat=       0.
          There are     1 degrees of freedom in the 1st order CPHF.  IDoFFX=0.
 Petite list used in FoFDir.
 MinBra= 0 MaxBra= 2 Meth= 1.
 IRaf=       0 NMat=   1 IRICut=       1 DoRegI=T DoRafI=F ISym2E= 1 JSym2E=1.
 LinEq1:  Iter=  0 NonCon=     1 RMS=2.13D-03 Max=6.25D-02
 AX will form     1 AO Fock derivatives at one time.
 LinEq1:  Iter=  1 NonCon=     1 RMS=4.40D-04 Max=1.07D-02
 LinEq1:  Iter=  2 NonCon=     1 RMS=1.55D-04 Max=6.92D-03
 LinEq1:  Iter=  3 NonCon=     1 RMS=5.83D-05 Max=2.26D-03
 LinEq1:  Iter=  4 NonCon=     1 RMS=2.32D-05 Max=8.28D-04
 LinEq1:  Iter=  5 NonCon=     1 RMS=7.32D-06 Max=2.19D-04
 LinEq1:  Iter=  6 NonCon=     1 RMS=2.51D-06 Max=9.00D-05
 LinEq1:  Iter=  7 NonCon=     1 RMS=9.23D-07 Max=3.97D-05
 LinEq1:  Iter=  8 NonCon=     1 RMS=2.89D-07 Max=1.30D-05
 LinEq1:  Iter=  9 NonCon=     1 RMS=1.20D-07 Max=6.87D-06
 LinEq1:  Iter= 10 NonCon=     1 RMS=3.89D-08 Max=1.10D-06
 LinEq1:  Iter= 11 NonCon=     1 RMS=1.44D-08 Max=6.82D-07
 LinEq1:  Iter= 12 NonCon=     1 RMS=5.74D-09 Max=3.05D-07
 LinEq1:  Iter= 13 NonCon=     1 RMS=2.07D-09 Max=1.09D-07
 LinEq1:  Iter= 14 NonCon=     1 RMS=6.93D-10 Max=2.50D-08
 LinEq1:  Iter= 15 NonCon=     1 RMS=2.37D-10 Max=1.06D-08
 LinEq1:  Iter= 16 NonCon=     1 RMS=6.25D-11 Max=1.71D-09
 LinEq1:  Iter= 17 NonCon=     0 RMS=2.24D-11 Max=7.67D-10
 Linear equations converged to 1.000D-10 1.000D-09 after    17 iterations.
 End of Minotr Frequency-dependent properties file   721 does not exist.
 End of Minotr Frequency-dependent properties file   722 does not exist.
 Leave Link 1002 at Wed Dec 22 17:29:10 2021, MaxMem=  996147200 cpu:    8210.8
 (Enter /apps/software//g09/l601.exe)
 Copying SCF densities to generalized density rwf, IOpCl= 0 IROHF=0.

 **********************************************************************

            Population analysis using the MP2 density.

 **********************************************************************

 Orbital symmetries:
       Occupied  (A') (A') (A') (A') (A') (A') (A') (A') (A') (A')
                 (A') (A') (A') (A') (A') (A') (A') (A') (A') (A')
                 (A') (A') (A') (A') (A') (A') (A') (A') (A') (A')
                 (A') (A') (A') (A') (A') (A') (A') (A') (A') (A')
                 (A') (A') (A') (A') (A') (A') (A') (A') (A') (A')
                 (A') (A') (A') (A') (A') (A") (A') (A') (A") (A')
                 (A') (A") (A') (A') (A') (A") (A") (A") (A") (A")
                 (A") (A") (A")
       Virtual   (A') (A') (A') (A') (A') (A") (A') (A') (A") (A')
                 (A') (A") (A') (A') (A") (A') (A") (A") (A') (A")
                 (A") (A') (A") (A') (A') (A") (A") (A') (A") (A')
                 (A') (A') (A") (A") (A') (A') (A') (A') (A') (A')
                 (A') (A') (A") (A') (A') (A') (A") (A") (A') (A")
                 (A') (A') (A") (A") (A') (A') (A") (A") (A') (A')
                 (A") (A') (A') (A') (A') (A') (A') (A") (A") (A')
                 (A") (A') (A') (A") (A") (A') (A') (A') (A') (A')
                 (A") (A') (A") (A') (A') (A") (A') (A') (A') (A')
                 (A') (A') (A') (A') (A') (A') (A') (A') (A") (A')
                 (A') (A') (A') (A') (A') (A') (A') (A') (A') (A")
                 (A') (A') (A') (A') (A') (A') (A') (A') (A') (A')
                 (A') (A') (A') (A') (A') (A') (A') (A') (A') (A')
                 (A') (A') (A') (A') (A") (A') (A") (A') (A') (A')
                 (A") (A') (A") (A') (A') (A") (A') (A") (A') (A')
                 (A') (A") (A') (A") (A') (A') (A") (A") (A") (A')
                 (A') (A") (A') (A') (A") (A") (A') (A') (A') (A')
                 (A") (A') (A') (A") (A") (A") (A') (A") (A') (A")
                 (A') (A') (A') (A') (A') (A') (A') (A") (A") (A')
                 (A') (A') (A') (A') (A') (A') (A') (A') (A') (A')
                 (A') (A') (A') (A') (A') (A') (A') (A') (A') (A')
                 (A") (A') (A') (A') (A') (A') (A") (A') (A') (A')
                 (A') (A") (A') (A') (A') (A") (A') (A") (A") (A')
                 (A') (A") (A") (A") (A') (A') (A") (A") (A') (A")
                 (A") (A') (A") (A') (A") (A') (A") (A") (A') (A')
                 (A") (A') (A') (A') (A') (A') (A') (A') (A') (A')
                 (A') (A") (A") (A') (A') (A') (A') (A') (A") (A")
                 (A') (A") (A') (A') (A") (A') (A") (A') (A") (A')
                 (A") (A") (A') (A') (A") (A') (A') (A') (A') (A')
                 (A') (A') (A') (A') (A") (A") (A") (A') (A") (A")
                 (A") (A") (A') (A') (A') (A') (A') (A") (A') (A")
                 (A") (A') (A') (A") (A') (A') (A') (A") (A") (A')
                 (A') (A") (A') (A') (A') (A") (A') (A') (A") (A')
                 (A") (A') (A') (A') (A") (A') (A") (A') (A') (A")
                 (A') (A') (A') (A") (A") (A') (A') (A") (A") (A')
                 (A') (A") (A') (A') (A') (A') (A") (A') (A") (A')
                 (A') (A") (A") (A') (A') (A') (A') (A') (A') (A')
                 (A') (A') (A') (A') (A') (A') (A') (A') (A') (A')
                 (A") (A') (A") (A') (A') (A') (A') (A') (A') (A")
                 (A') (A') (A') (A") (A') (A') (A") (A') (A') (A")
                 (A') (A') (A") (A") (A') (A") (A') (A") (A") (A")
                 (A') (A") (A') (A') (A") (A") (A') (A") (A") (A')
                 (A") (A") (A") (A") (A") (A') (A') (A') (A') (A')
                 (A') (A') (A') (A') (A') (A') (A') (A') (A') (A')
                 (A') (A') (A') (A') (A') (A') (A') (A') (A') (A')
                 (A') (A') (A') (A') (A') (A') (A') (A') (A') (A')
                 (A') (A') (A') (A') (A') (A') (A') (A') (A') (A')
                 (A') (A') (A') (A') (A') (A') (A') (A') (A') (A')
                 (A') (A') (A') (A') (A') (A') (A') (A') (A') (A')
                 (A') (A') (A') (A') (A') (A')
 The electronic state is 1-A'.
 Alpha  occ. eigenvalues --  -11.25499 -11.25499 -11.25414 -11.25414 -11.25161
 Alpha  occ. eigenvalues --  -11.25157 -11.25072 -11.25072 -11.24311 -11.24311
 Alpha  occ. eigenvalues --  -11.24278 -11.24277 -11.24236 -11.24236 -11.24189
 Alpha  occ. eigenvalues --  -11.24189 -11.24156 -11.24156 -11.24096 -11.24096
 Alpha  occ. eigenvalues --  -11.24001 -11.24001  -1.19923  -1.17912  -1.14692
 Alpha  occ. eigenvalues --   -1.11415  -1.08252  -1.06934  -1.03643  -1.03045
 Alpha  occ. eigenvalues --   -1.00572  -0.98224  -0.97126  -0.88351  -0.86959
 Alpha  occ. eigenvalues --   -0.84531  -0.84126  -0.82615  -0.79642  -0.76987
 Alpha  occ. eigenvalues --   -0.72718  -0.71479  -0.70064  -0.68812  -0.67333
 Alpha  occ. eigenvalues --   -0.65729  -0.63701  -0.62143  -0.61416  -0.60620
 Alpha  occ. eigenvalues --   -0.59745  -0.59613  -0.58801  -0.57753  -0.57385
 Alpha  occ. eigenvalues --   -0.55906  -0.54375  -0.53749  -0.53267  -0.52482
 Alpha  occ. eigenvalues --   -0.50172  -0.49100  -0.48864  -0.48206  -0.46839
 Alpha  occ. eigenvalues --   -0.45042  -0.41326  -0.40068  -0.35664  -0.34457
 Alpha  occ. eigenvalues --   -0.31497  -0.28216  -0.26593
 Alpha virt. eigenvalues --    0.03678   0.04048   0.04068   0.04830   0.04969
 Alpha virt. eigenvalues --    0.05255   0.06099   0.06125   0.06463   0.07590
 Alpha virt. eigenvalues --    0.07940   0.09397   0.09541   0.09588   0.09690
 Alpha virt. eigenvalues --    0.10285   0.10653   0.11729   0.12138   0.12331
 Alpha virt. eigenvalues --    0.13040   0.13100   0.13163   0.13796   0.13841
 Alpha virt. eigenvalues --    0.14896   0.15249   0.15531   0.16285   0.16391
 Alpha virt. eigenvalues --    0.16867   0.16991   0.17349   0.17361   0.17444
 Alpha virt. eigenvalues --    0.17708   0.18036   0.18340   0.18470   0.18747
 Alpha virt. eigenvalues --    0.19339   0.19394   0.19864   0.20087   0.21074
 Alpha virt. eigenvalues --    0.21081   0.21363   0.21594   0.21840   0.22188
 Alpha virt. eigenvalues --    0.22570   0.22968   0.23340   0.23430   0.23561
 Alpha virt. eigenvalues --    0.23592   0.23795   0.24178   0.24626   0.25024
 Alpha virt. eigenvalues --    0.25516   0.25639   0.26105   0.27091   0.27486
 Alpha virt. eigenvalues --    0.27893   0.28192   0.28776   0.29247   0.29265
 Alpha virt. eigenvalues --    0.29997   0.30329   0.30333   0.31215   0.31288
 Alpha virt. eigenvalues --    0.31516   0.31704   0.32052   0.33227   0.33551
 Alpha virt. eigenvalues --    0.33814   0.34454   0.34568   0.34900   0.35213
 Alpha virt. eigenvalues --    0.35691   0.35997   0.36199   0.36384   0.36673
 Alpha virt. eigenvalues --    0.37430   0.37662   0.38195   0.38400   0.39347
 Alpha virt. eigenvalues --    0.39867   0.40441   0.40852   0.40962   0.41543
 Alpha virt. eigenvalues --    0.41622   0.41775   0.41946   0.42062   0.42997
 Alpha virt. eigenvalues --    0.43055   0.45106   0.45267   0.45544   0.45545
 Alpha virt. eigenvalues --    0.45996   0.46049   0.46871   0.48055   0.48427
 Alpha virt. eigenvalues --    0.48933   0.49895   0.51283   0.51475   0.52295
 Alpha virt. eigenvalues --    0.52335   0.52989   0.53205   0.54449   0.54644
 Alpha virt. eigenvalues --    0.56811   0.58214   0.59581   0.63080   0.63983
 Alpha virt. eigenvalues --    0.64758   0.66409   0.66809   0.70171   0.70199
 Alpha virt. eigenvalues --    0.70731   0.71554   0.71678   0.71964   0.72789
 Alpha virt. eigenvalues --    0.72980   0.73269   0.73336   0.73717   0.74628
 Alpha virt. eigenvalues --    0.74752   0.75261   0.75630   0.75742   0.75857
 Alpha virt. eigenvalues --    0.77701   0.77746   0.78472   0.78537   0.78676
 Alpha virt. eigenvalues --    0.78865   0.79277   0.80333   0.80559   0.81486
 Alpha virt. eigenvalues --    0.82128   0.82950   0.83108   0.83253   0.83339
 Alpha virt. eigenvalues --    0.84240   0.85398   0.85619   0.85955   0.86212
 Alpha virt. eigenvalues --    0.86773   0.87348   0.87717   0.89161   0.90476
 Alpha virt. eigenvalues --    0.90487   0.90740   0.91837   0.92370   0.93956
 Alpha virt. eigenvalues --    0.94166   0.95517   0.95663   0.96291   0.96848
 Alpha virt. eigenvalues --    0.97672   0.97696   0.98692   0.99249   1.00288
 Alpha virt. eigenvalues --    1.00754   1.00771   1.01785   1.02100   1.03323
 Alpha virt. eigenvalues --    1.03541   1.04385   1.04756   1.05666   1.05928
 Alpha virt. eigenvalues --    1.08041   1.08915   1.09303   1.09653   1.09777
 Alpha virt. eigenvalues --    1.10912   1.12754   1.13551   1.13679   1.14277
 Alpha virt. eigenvalues --    1.14732   1.15895   1.16171   1.16277   1.17603
 Alpha virt. eigenvalues --    1.17787   1.18024   1.18428   1.18971   1.19342
 Alpha virt. eigenvalues --    1.19538   1.19674   1.20777   1.21334   1.21963
 Alpha virt. eigenvalues --    1.22700   1.25158   1.25694   1.26249   1.27034
 Alpha virt. eigenvalues --    1.27204   1.27698   1.28922   1.29277   1.29992
 Alpha virt. eigenvalues --    1.30626   1.31406   1.33136   1.33234   1.33929
 Alpha virt. eigenvalues --    1.34729   1.34969   1.35365   1.36585   1.38449
 Alpha virt. eigenvalues --    1.39176   1.39478   1.40685   1.40723   1.42076
 Alpha virt. eigenvalues --    1.42528   1.44028   1.47882   1.50556   1.56498
 Alpha virt. eigenvalues --    1.56579   1.59822   1.61973   1.63032   1.65243
 Alpha virt. eigenvalues --    1.65878   1.70966   1.71631   1.72519   1.73742
 Alpha virt. eigenvalues --    1.74200   1.76086   1.76160   1.76338   1.76412
 Alpha virt. eigenvalues --    1.76960   1.77932   1.78069   1.78360   1.79784
 Alpha virt. eigenvalues --    1.80448   1.82740   1.83045   1.83290   1.84120
 Alpha virt. eigenvalues --    1.84144   1.86076   1.86174   1.88505   1.88950
 Alpha virt. eigenvalues --    1.89031   1.89249   1.89671   1.93371   1.94126
 Alpha virt. eigenvalues --    1.94341   1.95148   1.98070   1.99121   2.00248
 Alpha virt. eigenvalues --    2.00859   2.01259   2.01940   2.02634   2.02800
 Alpha virt. eigenvalues --    2.03917   2.04039   2.05145   2.06093   2.09584
 Alpha virt. eigenvalues --    2.10201   2.13313   2.14455   2.14685   2.14991
 Alpha virt. eigenvalues --    2.15188   2.15752   2.15965   2.17498   2.18863
 Alpha virt. eigenvalues --    2.20121   2.20809   2.21389   2.22270   2.22362
 Alpha virt. eigenvalues --    2.22450   2.23017   2.23564   2.25637   2.26893
 Alpha virt. eigenvalues --    2.26898   2.27327   2.28688   2.29688   2.29711
 Alpha virt. eigenvalues --    2.30302   2.31290   2.32369   2.33538   2.34417
 Alpha virt. eigenvalues --    2.34606   2.36746   2.37918   2.39623   2.42014
 Alpha virt. eigenvalues --    2.43203   2.43637   2.46359   2.46850   2.48089
 Alpha virt. eigenvalues --    2.48646   2.50076   2.50420   2.54078   2.56129
 Alpha virt. eigenvalues --    2.56463   2.60088   2.60120   2.60742   2.61807
 Alpha virt. eigenvalues --    2.67591   2.68697   2.70037   2.70314   2.71671
 Alpha virt. eigenvalues --    2.76992   2.77641   2.79874   2.80529   2.81370
 Alpha virt. eigenvalues --    2.83102   2.84833   2.85153   2.86678   2.87286
 Alpha virt. eigenvalues --    2.89501   2.90509   2.96156   2.96609   2.97895
 Alpha virt. eigenvalues --    3.01593   3.01610   3.01837   3.02739   3.02740
 Alpha virt. eigenvalues --    3.03429   3.03824   3.04719   3.05183   3.05441
 Alpha virt. eigenvalues --    3.06185   3.06191   3.06899   3.07509   3.07785
 Alpha virt. eigenvalues --    3.08382   3.08988   3.09647   3.10108   3.10226
 Alpha virt. eigenvalues --    3.11841   3.13097   3.13775   3.16608   3.16675
 Alpha virt. eigenvalues --    3.18316   3.18982   3.20945   3.21059   3.21715
 Alpha virt. eigenvalues --    3.22638   3.25233   3.25279   3.27175   3.28146
 Alpha virt. eigenvalues --    3.29403   3.29746   3.30231   3.31460   3.31522
 Alpha virt. eigenvalues --    3.32747   3.35529   3.37337   3.37779   3.42745
 Alpha virt. eigenvalues --    3.44320   3.46991   3.49104   3.51117   3.52650
 Alpha virt. eigenvalues --    3.61562   3.63285   3.65045   3.66347   3.68484
 Alpha virt. eigenvalues --    3.70842   3.74834   3.77038   3.78198   3.79139
 Alpha virt. eigenvalues --    3.79369   3.82458   3.82540   3.86266   3.86504
 Alpha virt. eigenvalues --    3.88520   3.92786   3.93702   3.97558   3.97663
 Alpha virt. eigenvalues --    3.98473   3.99677   4.03280   4.05499   4.06330
 Alpha virt. eigenvalues --    4.06590   4.13374   4.16720   4.19220   4.22884
 Alpha virt. eigenvalues --    4.29137   4.45956   4.46150   4.48391   4.48435
 Alpha virt. eigenvalues --    4.50779   4.51905   4.58540   4.63620   4.67085
 Alpha virt. eigenvalues --    4.71113   4.73307   4.86195   5.10030   5.25149
 Alpha virt. eigenvalues --    5.25683   5.27228   5.28280   5.32431  24.61864
 Alpha virt. eigenvalues --   24.78085  24.92331  24.98670  25.03374  25.07652
 Alpha virt. eigenvalues --   25.10629  25.11412  25.12386  25.12756  25.15039
 Alpha virt. eigenvalues --   25.16567  25.19194  25.19568  25.26275  25.27245
 Alpha virt. eigenvalues --   25.27536  25.31474  25.35427  25.35607  25.38127
 Alpha virt. eigenvalues --   25.38646
          Condensed to atoms (all electrons):
              1          2          3          4          5          6
     1  C   27.887903   9.179704  -3.152719  -0.430009  -4.315876  -1.477805
     2  C    9.179704  25.278733   0.526217   0.768542  -1.262695  -0.949864
     3  C   -3.152719   0.526217  24.150762  -5.910711  -5.327857   3.888730
     4  C   -0.430009   0.768542  -5.910711  18.903216   3.479925  -7.586274
     5  C   -4.315876  -1.262695  -5.327857   3.479925  17.932708  -3.067979
     6  C   -1.477805  -0.949864   3.888730  -7.586274  -3.067979  25.484026
     7  C   -2.704626  -2.128570   2.206872  -3.037366  -1.283407   0.290964
     8  C   -4.152803 -12.164735   0.836701  -1.482135   0.863653   0.218834
     9  C   -1.450144   0.836698   0.822942  -0.573270  -0.360486  -0.364255
    10  C   -0.817067   2.364187   2.080318  -0.680775  -0.140993  -0.038369
    11  C   -0.070102  -1.482148  -0.573276  -0.211561  -0.288012   0.351692
    12  C    0.139436   0.863648  -0.360485  -0.288013  -0.126478   0.115284
    13  C   -0.399537   0.218829  -0.364251   0.351697   0.115284  -0.034649
    14  C   -0.151020  -4.152801  -1.450147  -0.070102   0.139437  -0.399538
    15  C    0.091604  -2.534984   0.222615   0.199128   0.043937   0.044010
    16  C    0.071926   0.134912   1.334582   0.123816   0.021002   0.054529
    17  C   -0.012639  -0.190118  -0.216582  -0.014628  -0.000584   0.005042
    18  C   -0.027877  -0.137535  -0.575437  -0.025289  -0.010585  -0.034331
    19  C   -3.682730  -4.109591  -8.035074   2.517559  -0.347267  -5.215730
    20  C   -6.983134  -1.815268  -0.822233   0.889874   1.738609   3.429969
    21  C    4.865294   0.276758   0.050798  -1.350064  -2.322256  -1.966076
    22  C   -6.861604  -3.757422  -3.691038   0.512614   0.563821  -6.970543
    23  H   -0.009791  -0.028701  -0.250245   0.555405   0.066029  -0.120533
    24  H    0.061768   0.072418   0.012194  -0.025839   0.381242  -0.052338
    25  H    0.091820   0.313014   0.474775  -0.340806  -0.200001   0.035239
    26  H   -0.170104  -0.296513   0.384690  -0.160401   0.025778  -0.014423
    27  H    0.002111   0.002786  -0.019136   0.017765   0.001503  -0.003952
    28  H    0.003614  -0.011498  -0.001096  -0.004619  -0.000542  -0.000273
    29  H   -0.015664  -0.129575  -0.168169   0.034753   0.016367  -0.011642
    30  H    0.000805   0.010483   0.015624  -0.001266  -0.000206   0.000191
    31  H    0.000007  -0.002085   0.000075   0.000282   0.000063   0.000057
    32  H   -0.000456  -0.000542  -0.002647  -0.000874  -0.000116  -0.000418
    33  H   -0.140787  -0.185346  -0.321939   0.065175  -0.042672  -0.103386
    34  H    0.038783   0.053270   0.023361  -0.006143   0.000235   0.088372
    35  H    0.054879  -0.001463   0.002320   0.001594   0.003457   0.025699
    36  H   -0.157160  -0.028838  -0.051471   0.013847   0.019682  -0.227826
              7          8          9         10         11         12
     1  C   -2.704626  -4.152803  -1.450144  -0.817067  -0.070102   0.139436
     2  C   -2.128570 -12.164735   0.836698   2.364187  -1.482148   0.863648
     3  C    2.206872   0.836701   0.822942   2.080318  -0.573276  -0.360485
     4  C   -3.037366  -1.482135  -0.573270  -0.680775  -0.211561  -0.288013
     5  C   -1.283407   0.863653  -0.360486  -0.140993  -0.288012  -0.126478
     6  C    0.290964   0.218834  -0.364255  -0.038369   0.351692   0.115284
     7  C   12.228869   2.364184   2.080310   1.188771  -0.680775  -0.140983
     8  C    2.364184  25.278722   0.526214  -2.128567   0.768525  -1.262689
     9  C    2.080310   0.526214  24.150725   2.206865  -5.910732  -5.327819
    10  C    1.188771  -2.128567   2.206865  12.228851  -3.037361  -1.283394
    11  C   -0.680775   0.768525  -5.910732  -3.037361  18.903203   3.479918
    12  C   -0.140983  -1.262689  -5.327819  -1.283394   3.479918  17.932666
    13  C   -0.038379  -0.949851   3.888734   0.290961  -7.586244  -3.067989
    14  C   -0.817061   9.179691  -3.152711  -2.704625  -0.429992  -4.315868
    15  C   -0.866153  -4.109600  -8.035076  -1.290825   2.517574  -0.347268
    16  C   -0.998618  -1.815251  -0.822218  -0.250408   0.889868   1.738603
    17  C   -0.223910   0.276755   0.050796  -0.047013  -1.350061  -2.322252
    18  C   -0.014142  -3.757415  -3.691033  -0.002095   0.512623   0.563815
    19  C   -1.290823  -2.534991   0.222621  -0.866153   0.199134   0.043938
    20  C   -0.250410   0.134911   1.334586  -0.998613   0.123817   0.021002
    21  C   -0.047013  -0.190118  -0.216582  -0.223910  -0.014629  -0.000584
    22  C   -0.002092  -0.137537  -0.575439  -0.014146  -0.025289  -0.010585
    23  H   -0.049128   0.002786  -0.019136  -0.046703   0.017765   0.001503
    24  H    0.030737  -0.011498  -0.001096  -0.001955  -0.004619  -0.000542
    25  H    0.393009  -0.296513   0.384689   0.224649  -0.160401   0.025779
    26  H    0.224649   0.313015   0.474773   0.393008  -0.340806  -0.200000
    27  H   -0.046703  -0.028702  -0.250244  -0.049128   0.555406   0.066029
    28  H   -0.001955   0.072418   0.012194   0.030737  -0.025840   0.381242
    29  H    0.018137  -0.185346  -0.321939  -0.056107   0.065176  -0.042672
    30  H   -0.000703   0.053269   0.023361   0.002903  -0.006143   0.000235
    31  H   -0.004381  -0.001463   0.002320   0.000297   0.001594   0.003457
    32  H   -0.002051  -0.028838  -0.051471  -0.007542   0.013847   0.019682
    33  H   -0.056106  -0.129575  -0.168168   0.018137   0.034753   0.016367
    34  H    0.002903   0.010483   0.015624  -0.000703  -0.001266  -0.000206
    35  H    0.000297  -0.002085   0.000075  -0.004381   0.000282   0.000063
    36  H   -0.007542  -0.000542  -0.002647  -0.002051  -0.000874  -0.000116
             13         14         15         16         17         18
     1  C   -0.399537  -0.151020   0.091604   0.071926  -0.012639  -0.027877
     2  C    0.218829  -4.152801  -2.534984   0.134912  -0.190118  -0.137535
     3  C   -0.364251  -1.450147   0.222615   1.334582  -0.216582  -0.575437
     4  C    0.351697  -0.070102   0.199128   0.123816  -0.014628  -0.025289
     5  C    0.115284   0.139437   0.043937   0.021002  -0.000584  -0.010585
     6  C   -0.034649  -0.399538   0.044010   0.054529   0.005042  -0.034331
     7  C   -0.038379  -0.817061  -0.866153  -0.998618  -0.223910  -0.014142
     8  C   -0.949851   9.179691  -4.109600  -1.815251   0.276755  -3.757415
     9  C    3.888734  -3.152711  -8.035076  -0.822218   0.050796  -3.691033
    10  C    0.290961  -2.704625  -1.290825  -0.250408  -0.047013  -0.002095
    11  C   -7.586244  -0.429992   2.517574   0.889868  -1.350061   0.512623
    12  C   -3.067989  -4.315868  -0.347268   1.738603  -2.322252   0.563815
    13  C   25.483954  -1.477804  -5.215712   3.429966  -1.966088  -6.970505
    14  C   -1.477804  27.887863  -3.682747  -6.983102   4.865283  -6.861594
    15  C   -5.215712  -3.682747  26.832256  -4.710093  -1.972801   8.859056
    16  C    3.429966  -6.983102  -4.710093  19.536934  -1.390525  -3.887249
    17  C   -1.966088   4.865283  -1.972801  -1.390525  11.892045  -1.056791
    18  C   -6.970505  -6.861594   8.859056  -3.887249  -1.056791  22.700429
    19  C    0.044010   0.091604  -0.087334  -0.017825  -0.004946   0.054843
    20  C    0.054529   0.071926  -0.017825  -0.004462   0.000254   0.008025
    21  C    0.005042  -0.012639  -0.004946   0.000254  -0.000086   0.000246
    22  C   -0.034331  -0.027877   0.054843   0.008025   0.000246  -0.004329
    23  H   -0.003952   0.002111   0.028311   0.012470  -0.000604  -0.000647
    24  H   -0.000273   0.003614  -0.001838  -0.000089   0.000000  -0.000025
    25  H   -0.014424  -0.170104  -0.442587   0.035929   0.000410  -0.140776
    26  H    0.035239   0.091820   0.000690  -0.002710   0.002528  -0.055372
    27  H   -0.120533  -0.009791   0.026793  -0.000042  -0.004782   0.101837
    28  H   -0.052339   0.061768  -0.091794   0.002673   0.060510  -0.176673
    29  H   -0.103386  -0.140787   1.249357  -0.348161   0.012885   0.412830
    30  H    0.088371   0.038783  -0.215456   0.536195  -0.181253  -0.098167
    31  H    0.025699   0.054879  -0.091408  -0.096277   0.500706  -0.104066
    32  H   -0.227825  -0.157161   0.234230  -0.031309  -0.273726   0.777575
    33  H   -0.011642  -0.015664   0.001081   0.000996  -0.000260   0.002040
    34  H    0.000191   0.000805   0.000134  -0.000012   0.000006  -0.000009
    35  H    0.000057   0.000007  -0.000017   0.000001   0.000000   0.000006
    36  H   -0.000418  -0.000456   0.000890   0.000117   0.000001  -0.000052
             19         20         21         22         23         24
     1  C   -3.682730  -6.983134   4.865294  -6.861604  -0.009791   0.061768
     2  C   -4.109591  -1.815268   0.276758  -3.757422  -0.028701   0.072418
     3  C   -8.035074  -0.822233   0.050798  -3.691038  -0.250245   0.012194
     4  C    2.517559   0.889874  -1.350064   0.512614   0.555405  -0.025839
     5  C   -0.347267   1.738609  -2.322256   0.563821   0.066029   0.381242
     6  C   -5.215730   3.429969  -1.966076  -6.970543  -0.120533  -0.052338
     7  C   -1.290823  -0.250410  -0.047013  -0.002092  -0.049128   0.030737
     8  C   -2.534991   0.134911  -0.190118  -0.137537   0.002786  -0.011498
     9  C    0.222621   1.334586  -0.216582  -0.575439  -0.019136  -0.001096
    10  C   -0.866153  -0.998613  -0.223910  -0.014146  -0.046703  -0.001955
    11  C    0.199134   0.123817  -0.014629  -0.025289   0.017765  -0.004619
    12  C    0.043938   0.021002  -0.000584  -0.010585   0.001503  -0.000542
    13  C    0.044010   0.054529   0.005042  -0.034331  -0.003952  -0.000273
    14  C    0.091604   0.071926  -0.012639  -0.027877   0.002111   0.003614
    15  C   -0.087334  -0.017825  -0.004946   0.054843   0.028311  -0.001838
    16  C   -0.017825  -0.004462   0.000254   0.008025   0.012470  -0.000089
    17  C   -0.004946   0.000254  -0.000086   0.000246  -0.000604   0.000000
    18  C    0.054843   0.008025   0.000246  -0.004329  -0.000647  -0.000025
    19  C   26.832236  -4.710076  -1.972811   8.859067   0.026793  -0.091794
    20  C   -4.710076  19.536957  -1.390523  -3.887249  -0.000042   0.002673
    21  C   -1.972811  -1.390523  11.892043  -1.056803  -0.004782   0.060510
    22  C    8.859067  -3.887249  -1.056803  22.700497   0.101837  -0.176674
    23  H    0.026793  -0.000042  -0.004782   0.101837   0.648674  -0.044442
    24  H   -0.091794   0.002673   0.060510  -0.176674  -0.044442   0.620593
    25  H    0.000690  -0.002710   0.002528  -0.055371  -0.085261   0.018592
    26  H   -0.442587   0.035928   0.000410  -0.140776  -0.009612   0.004107
    27  H    0.028312   0.012470  -0.000604  -0.000647   0.000619  -0.000194
    28  H   -0.001838  -0.000089   0.000000  -0.000025  -0.000194   0.000024
    29  H    0.001081   0.000996  -0.000260   0.002040   0.009632  -0.001102
    30  H    0.000134  -0.000012   0.000006  -0.000009  -0.000260   0.000018
    31  H   -0.000017   0.000001   0.000000   0.000006   0.000004   0.000000
    32  H    0.000890   0.000117   0.000001  -0.000052  -0.000030   0.000003
    33  H    1.249354  -0.348159   0.012884   0.412830   0.003862  -0.002729
    34  H   -0.215456   0.536196  -0.181253  -0.098167  -0.000327   0.000166
    35  H   -0.091408  -0.096277   0.500706  -0.104066  -0.000507   0.003290
    36  H    0.234230  -0.031309  -0.273726   0.777576   0.005328  -0.014409
             25         26         27         28         29         30
     1  C    0.091820  -0.170104   0.002111   0.003614  -0.015664   0.000805
     2  C    0.313014  -0.296513   0.002786  -0.011498  -0.129575   0.010483
     3  C    0.474775   0.384690  -0.019136  -0.001096  -0.168169   0.015624
     4  C   -0.340806  -0.160401   0.017765  -0.004619   0.034753  -0.001266
     5  C   -0.200001   0.025778   0.001503  -0.000542   0.016367  -0.000206
     6  C    0.035239  -0.014423  -0.003952  -0.000273  -0.011642   0.000191
     7  C    0.393009   0.224649  -0.046703  -0.001955   0.018137  -0.000703
     8  C   -0.296513   0.313015  -0.028702   0.072418  -0.185346   0.053269
     9  C    0.384689   0.474773  -0.250244   0.012194  -0.321939   0.023361
    10  C    0.224649   0.393008  -0.049128   0.030737  -0.056107   0.002903
    11  C   -0.160401  -0.340806   0.555406  -0.025840   0.065176  -0.006143
    12  C    0.025779  -0.200000   0.066029   0.381242  -0.042672   0.000235
    13  C   -0.014424   0.035239  -0.120533  -0.052339  -0.103386   0.088371
    14  C   -0.170104   0.091820  -0.009791   0.061768  -0.140787   0.038783
    15  C   -0.442587   0.000690   0.026793  -0.091794   1.249357  -0.215456
    16  C    0.035929  -0.002710  -0.000042   0.002673  -0.348161   0.536195
    17  C    0.000410   0.002528  -0.004782   0.060510   0.012885  -0.181253
    18  C   -0.140776  -0.055372   0.101837  -0.176673   0.412830  -0.098167
    19  C    0.000690  -0.442587   0.028312  -0.001838   0.001081   0.000134
    20  C   -0.002710   0.035928   0.012470  -0.000089   0.000996  -0.000012
    21  C    0.002528   0.000410  -0.000604   0.000000  -0.000260   0.000006
    22  C   -0.055371  -0.140776  -0.000647  -0.000025   0.002040  -0.000009
    23  H   -0.085261  -0.009612   0.000619  -0.000194   0.009632  -0.000260
    24  H    0.018592   0.004107  -0.000194   0.000024  -0.001102   0.000018
    25  H    1.139595   0.044980  -0.009612   0.004107  -0.178313   0.013743
    26  H    0.044980   1.139595  -0.085261   0.018592  -0.007271   0.000226
    27  H   -0.009612  -0.085261   0.648674  -0.044442   0.003862  -0.000327
    28  H    0.004107   0.018592  -0.044442   0.620593  -0.002730   0.000166
    29  H   -0.178313  -0.007271   0.003862  -0.002730   0.803965  -0.053421
    30  H    0.013743   0.000226  -0.000327   0.000166  -0.053421   0.589318
    31  H   -0.000674   0.000126  -0.000507   0.003290   0.002417  -0.020645
    32  H   -0.001396  -0.000892   0.005328  -0.014409   0.007417   0.000286
    33  H   -0.007271  -0.178312   0.009632  -0.001102   0.000584  -0.000004
    34  H    0.000226   0.013743  -0.000260   0.000018  -0.000004   0.000000
    35  H    0.000126  -0.000674   0.000004   0.000000   0.000000   0.000000
    36  H   -0.000892  -0.001396  -0.000030   0.000003  -0.000007   0.000000
             31         32         33         34         35         36
     1  C    0.000007  -0.000456  -0.140787   0.038783   0.054879  -0.157160
     2  C   -0.002085  -0.000542  -0.185346   0.053270  -0.001463  -0.028838
     3  C    0.000075  -0.002647  -0.321939   0.023361   0.002320  -0.051471
     4  C    0.000282  -0.000874   0.065175  -0.006143   0.001594   0.013847
     5  C    0.000063  -0.000116  -0.042672   0.000235   0.003457   0.019682
     6  C    0.000057  -0.000418  -0.103386   0.088372   0.025699  -0.227826
     7  C   -0.004381  -0.002051  -0.056106   0.002903   0.000297  -0.007542
     8  C   -0.001463  -0.028838  -0.129575   0.010483  -0.002085  -0.000542
     9  C    0.002320  -0.051471  -0.168168   0.015624   0.000075  -0.002647
    10  C    0.000297  -0.007542   0.018137  -0.000703  -0.004381  -0.002051
    11  C    0.001594   0.013847   0.034753  -0.001266   0.000282  -0.000874
    12  C    0.003457   0.019682   0.016367  -0.000206   0.000063  -0.000116
    13  C    0.025699  -0.227825  -0.011642   0.000191   0.000057  -0.000418
    14  C    0.054879  -0.157161  -0.015664   0.000805   0.000007  -0.000456
    15  C   -0.091408   0.234230   0.001081   0.000134  -0.000017   0.000890
    16  C   -0.096277  -0.031309   0.000996  -0.000012   0.000001   0.000117
    17  C    0.500706  -0.273726  -0.000260   0.000006   0.000000   0.000001
    18  C   -0.104066   0.777575   0.002040  -0.000009   0.000006  -0.000052
    19  C   -0.000017   0.000890   1.249354  -0.215456  -0.091408   0.234230
    20  C    0.000001   0.000117  -0.348159   0.536196  -0.096277  -0.031309
    21  C    0.000000   0.000001   0.012884  -0.181253   0.500706  -0.273726
    22  C    0.000006  -0.000052   0.412830  -0.098167  -0.104066   0.777576
    23  H    0.000004  -0.000030   0.003862  -0.000327  -0.000507   0.005328
    24  H    0.000000   0.000003  -0.002729   0.000166   0.003290  -0.014409
    25  H   -0.000674  -0.001396  -0.007271   0.000226   0.000126  -0.000892
    26  H    0.000126  -0.000892  -0.178312   0.013743  -0.000674  -0.001396
    27  H   -0.000507   0.005328   0.009632  -0.000260   0.000004  -0.000030
    28  H    0.003290  -0.014409  -0.001102   0.000018   0.000000   0.000003
    29  H    0.002417   0.007417   0.000584  -0.000004   0.000000  -0.000007
    30  H   -0.020645   0.000286  -0.000004   0.000000   0.000000   0.000000
    31  H    0.575783  -0.028745   0.000000   0.000000   0.000000   0.000000
    32  H   -0.028745   0.618021  -0.000007   0.000000   0.000000  -0.000001
    33  H    0.000000  -0.000007   0.803964  -0.053421   0.002417   0.007417
    34  H    0.000000   0.000000  -0.053421   0.589318  -0.020645   0.000286
    35  H    0.000000   0.000000   0.002417  -0.020645   0.575783  -0.028745
    36  H    0.000000  -0.000001   0.007417   0.000286  -0.028745   0.618021
 Mulliken atomic charges:
              1
     1  C    0.694002
     2  C    0.470094
     3  C    0.260936
     4  C   -0.235047
     5  C   -0.314723
     6  C    0.607570
     7  C   -0.336804
     8  C    0.470094
     9  C    0.260939
    10  C   -0.336803
    11  C   -0.235048
    12  C   -0.314724
    13  C    0.607571
    14  C    0.694002
    15  C   -0.688045
    16  C   -0.574448
    17  C   -0.437817
    18  C   -0.361331
    19  C   -0.688045
    20  C   -0.574449
    21  C   -0.437815
    22  C   -0.361331
    23  H    0.191766
    24  H    0.159507
    25  H   -0.096788
    26  H   -0.096788
    27  H    0.191766
    28  H    0.159507
    29  H    0.125056
    30  H    0.203754
    31  H    0.179207
    32  H    0.153108
    33  H    0.125056
    34  H    0.203754
    35  H    0.179207
    36  H    0.153108
 Sum of Mulliken atomic charges =   0.00000
 Mulliken charges with hydrogens summed into heavy atoms:
              1
     1  C    0.694002
     2  C    0.470094
     3  C    0.260936
     4  C   -0.043281
     5  C   -0.155216
     6  C    0.607570
     7  C   -0.433591
     8  C    0.470094
     9  C    0.260939
    10  C   -0.433590
    11  C   -0.043282
    12  C   -0.155217
    13  C    0.607571
    14  C    0.694002
    15  C   -0.562989
    16  C   -0.370694
    17  C   -0.258610
    18  C   -0.208223
    19  C   -0.562989
    20  C   -0.370695
    21  C   -0.258607
    22  C   -0.208223
 Sum of Mulliken charges with hydrogens summed into heavy atoms =   0.00000
 Electronic spatial extent (au):  <R**2>=           8001.8524
 Charge=              0.0000 electrons
 Dipole moment (field-independent basis, Debye):
    X=              0.0000    Y=              0.0000    Z=              0.0000  Tot=              0.0000
 Quadrupole moment (field-independent basis, Debye-Ang):
   XX=           -113.2124   YY=           -111.4503   ZZ=           -139.7615
   XY=             -0.3527   XZ=              0.0000   YZ=              0.0000
 Traceless Quadrupole moment (field-independent basis, Debye-Ang):
   XX=              8.2623   YY=             10.0245   ZZ=            -18.2868
   XY=             -0.3527   XZ=              0.0000   YZ=              0.0000
 Octapole moment (field-independent basis, Debye-Ang**2):
  XXX=              0.0001  YYY=              0.0000  ZZZ=              0.0000  XYY=              0.0000
  XXY=              0.0000  XXZ=              0.0000  XZZ=              0.0000  YZZ=              0.0000
  YYZ=              0.0000  XYZ=              0.0000
 Hexadecapole moment (field-independent basis, Debye-Ang**3):
 XXXX=          -1600.0949 YYYY=          -8631.2012 ZZZZ=           -170.9099 XXXY=             89.2940
 XXXZ=              0.0000 YYYX=             85.5511 YYYZ=              0.0000 ZZZX=              0.0000
 ZZZY=              0.0000 XXYY=          -1706.9274 XXZZ=           -358.7960 YYZZ=          -1830.7437
 XXYZ=              0.0000 YYXZ=              0.0000 ZZXY=             41.1647
 N-N= 1.527619629658D+03 E-N=-5.016543644647D+03  KE= 8.441573158528D+02
 Symmetry A'   KE= 8.203973964950D+02
 Symmetry A"   KE= 2.375991935784D+01
 No NMR shielding tensors so no spin-rotation constants.
 Leave Link  601 at Wed Dec 22 17:29:12 2021, MaxMem=  996147200 cpu:      14.5
 (Enter /apps/software//g09/l9999.exe)
 1\1\GINC-DLT02\SP\RMP2-FC\6-311++G(d,p)\C22H14\ITAMAR\22-Dec-2021\0\\#
 P MP2/6-311++G** DENSITY=MP2\\Dibenzo-anthracene\\0,1\C,0,2.501838,-1.
 45414,0.\C,0,1.225895,-0.742886,0.\C,0,1.225895,0.689244,0.\C,0,2.4771
 5,1.39616,0.\C,0,3.659312,0.733187,0.\C,0,3.711133,-0.703904,0.\C,0,0.
 012636,1.38696,0.\C,0,-1.225895,0.742886,0.\C,0,-1.225895,-0.689244,0.
 \C,0,-0.012636,-1.38696,0.\C,0,-2.47715,-1.396161,0.\C,0,-3.659313,-0.
 733187,0.\C,0,-3.711133,0.703904,0.\C,0,-2.501838,1.45414,0.\C,0,-2.59
 6215,2.86184,0.\C,0,-3.821352,3.503043,0.\C,0,-5.011256,2.758063,0.\C,
 0,-4.950532,1.379052,0.\C,0,2.596216,-2.86184,0.\C,0,3.821352,-3.50304
 3,0.\C,0,5.011256,-2.758063,0.\C,0,4.950532,-1.379052,0.\H,0,2.454897,
 2.480962,0.\H,0,4.596202,1.280419,0.\H,0,0.06285,2.468952,0.\H,0,-0.06
 285,-2.468952,0.\H,0,-2.454898,-2.480962,0.\H,0,-4.596202,-1.280419,0.
 \H,0,-1.696759,3.464064,0.\H,0,-3.860955,4.586524,0.\H,0,-5.970211,3.2
 63613,0.\H,0,-5.863105,0.791827,0.\H,0,1.69676,-3.464065,0.\H,0,3.8609
 55,-4.586523,0.\H,0,5.970212,-3.263612,0.\H,0,5.863105,-0.791827,0.\\V
 ersion=EM64L-G09RevA.02\State=1-A'\HF=-841.4809956\MP2=-844.4815964\RM
 SD=8.468e-09\Dipole=-0.0000004,-0.0000005,0.\Quadrupole=7.0744465,6.52
 13285,-13.5957749,-0.649131,0.,0.\PG=CS [SG(C22H14)]\\@


 THE MEEK SHALL INHERIT THE EARTH.
 (THE REST OF US WILL ESCAPE TO THE STARS)
 Job cpu time:  0 days  9 hours 26 minutes 29.4 seconds.
 File lengths (MBytes):  RWF= 135075 Int=      0 D2E=      0 Chk=     21 Scr=      1
 Normal termination of Gaussian 09 at Wed Dec 22 17:29:28 2021.
