Chair-25                                                                
SP        RMP2-FC                                                     6-311++G(d,p)       
Number of atoms                            I               12
Info1-9                                    I   N=           9
          24          21           0           0           0         110
           1           2           1
Charge                                     I                0
Multiplicity                               I                1
Number of electrons                        I               42
Number of alpha electrons                  I               21
Number of beta electrons                   I               21
Number of basis functions                  I              174
Number of independent functions            I              174
Number of point charges in /Mol/           I                0
Number of translation vectors              I                0
Atomic numbers                             I   N=          12
           6           6           6           6           6           6
           1           1           1           1           1           1
Nuclear charges                            R   N=          12
  6.00000000E+00  6.00000000E+00  6.00000000E+00  6.00000000E+00  6.00000000E+00
  6.00000000E+00  1.00000000E+00  1.00000000E+00  1.00000000E+00  1.00000000E+00
  1.00000000E+00  1.00000000E+00
Current cartesian coordinates              R   N=          36
  1.90185287E-01  2.57622064E+00  1.15555797E-31 -1.90185287E-01  1.31290244E+00
  2.29443744E+00  1.90185287E-01 -1.31290244E+00  2.29443744E+00 -1.90185287E-01
 -2.57622064E+00  7.70371978E-33  1.90185287E-01 -1.31290244E+00 -2.29443744E+00
 -1.90185287E-01  1.31290244E+00 -2.29443744E+00  1.66163533E-01  4.63057062E+00
  1.80267043E-31 -1.50836938E-01  2.36614986E+00  4.05398790E+00  1.50836938E-01
 -2.36614986E+00  4.05398790E+00 -1.66163533E-01 -4.63057062E+00 -2.31111593E-32
  1.50836938E-01 -2.36614986E+00 -4.05398790E+00 -1.50836938E-01  2.36614986E+00
 -4.05398790E+00
Force Field                                I                0
Int Atom Types                             I   N=          12
           0           0           0           0           0           0
           0           0           0           0           0           0
MM charges                                 R   N=          12
  0.00000000E+00  0.00000000E+00  0.00000000E+00  0.00000000E+00  0.00000000E+00
  0.00000000E+00  0.00000000E+00  0.00000000E+00  0.00000000E+00  0.00000000E+00
  0.00000000E+00  0.00000000E+00
Integer atomic weights                     I   N=          12
          12          12          12          12          12          12
           1           1           1           1           1           1
Real atomic weights                        R   N=          12
  1.20000000E+01  1.20000000E+01  1.20000000E+01  1.20000000E+01  1.20000000E+01
  1.20000000E+01  1.00782504E+00  1.00782504E+00  1.00782504E+00  1.00782504E+00
  1.00782504E+00  1.00782504E+00
Atom fragment info                         I   N=          12
           0           0           0           0           0           0
           0           0           0           0           0           0
Atom residue num                           I   N=          12
           0           0           0           0           0           0
           0           0           0           0           0           0
Nuclear spins                              I   N=          12
           0           0           0           0           0           0
           1           1           1           1           1           1
Nuclear ZEff                               R   N=          12
 -3.60000000E+00 -3.60000000E+00 -3.60000000E+00 -3.60000000E+00 -3.60000000E+00
 -3.60000000E+00 -1.00000000E+00 -1.00000000E+00 -1.00000000E+00 -1.00000000E+00
 -1.00000000E+00 -1.00000000E+00
Nuclear QMom                               R   N=          12
  0.00000000E+00  0.00000000E+00  0.00000000E+00  0.00000000E+00  0.00000000E+00
  0.00000000E+00  0.00000000E+00  0.00000000E+00  0.00000000E+00  0.00000000E+00
  0.00000000E+00  0.00000000E+00
Nuclear GFac                               R   N=          12
  0.00000000E+00  0.00000000E+00  0.00000000E+00  0.00000000E+00  0.00000000E+00
  0.00000000E+00  2.79284600E+00  2.79284600E+00  2.79284600E+00  2.79284600E+00
  2.79284600E+00  2.79284600E+00
MicOpt                                     I   N=          12
          -1          -1          -1          -1          -1          -1
          -1          -1          -1          -1          -1          -1
Number of contracted shells                I               66
Number of primitive shells                 I              120
Pure/Cartesian d shells                    I                0
Pure/Cartesian f shells                    I                0
Highest angular momentum                   I                2
Largest degree of contraction              I                6
Shell types                                I   N=          66
           0          -1          -1          -1          -1          -2
           0          -1          -1          -1          -1          -2
           0          -1          -1          -1          -1          -2
           0          -1          -1          -1          -1          -2
           0          -1          -1          -1          -1          -2
           0          -1          -1          -1          -1          -2
           0           0           0           0           1           0
           0           0           0           1           0           0
           0           0           1           0           0           0
           0           1           0           0           0           0
           1           0           0           0           0           1
Number of primitives per shell             I   N=          66
           6           3           1           1           1           1
           6           3           1           1           1           1
           6           3           1           1           1           1
           6           3           1           1           1           1
           6           3           1           1           1           1
           6           3           1           1           1           1
           3           1           1           1           1           3
           1           1           1           1           3           1
           1           1           1           3           1           1
           1           1           3           1           1           1
           1           3           1           1           1           1
Shell to atom map                          I   N=          66
           1           1           1           1           1           1
           2           2           2           2           2           2
           3           3           3           3           3           3
           4           4           4           4           4           4
           5           5           5           5           5           5
           6           6           6           6           6           6
           7           7           7           7           7           8
           8           8           8           8           9           9
           9           9           9          10          10          10
          10          10          11          11          11          11
          11          12          12          12          12          12
Primitive exponents                        R   N=         120
  4.56324000E+03  6.82024000E+02  1.54973000E+02  4.44553000E+01  1.30290000E+01
  1.82773000E+00  2.09642000E+01  4.80331000E+00  1.45933000E+00  4.83456000E-01
  1.45585000E-01  4.38000000E-02  6.26000000E-01  4.56324000E+03  6.82024000E+02
  1.54973000E+02  4.44553000E+01  1.30290000E+01  1.82773000E+00  2.09642000E+01
  4.80331000E+00  1.45933000E+00  4.83456000E-01  1.45585000E-01  4.38000000E-02
  6.26000000E-01  4.56324000E+03  6.82024000E+02  1.54973000E+02  4.44553000E+01
  1.30290000E+01  1.82773000E+00  2.09642000E+01  4.80331000E+00  1.45933000E+00
  4.83456000E-01  1.45585000E-01  4.38000000E-02  6.26000000E-01  4.56324000E+03
  6.82024000E+02  1.54973000E+02  4.44553000E+01  1.30290000E+01  1.82773000E+00
  2.09642000E+01  4.80331000E+00  1.45933000E+00  4.83456000E-01  1.45585000E-01
  4.38000000E-02  6.26000000E-01  4.56324000E+03  6.82024000E+02  1.54973000E+02
  4.44553000E+01  1.30290000E+01  1.82773000E+00  2.09642000E+01  4.80331000E+00
  1.45933000E+00  4.83456000E-01  1.45585000E-01  4.38000000E-02  6.26000000E-01
  4.56324000E+03  6.82024000E+02  1.54973000E+02  4.44553000E+01  1.30290000E+01
  1.82773000E+00  2.09642000E+01  4.80331000E+00  1.45933000E+00  4.83456000E-01
  1.45585000E-01  4.38000000E-02  6.26000000E-01  3.38650000E+01  5.09479000E+00
  1.15879000E+00  3.25840000E-01  1.02741000E-01  3.60000000E-02  7.50000000E-01
  3.38650000E+01  5.09479000E+00  1.15879000E+00  3.25840000E-01  1.02741000E-01
  3.60000000E-02  7.50000000E-01  3.38650000E+01  5.09479000E+00  1.15879000E+00
  3.25840000E-01  1.02741000E-01  3.60000000E-02  7.50000000E-01  3.38650000E+01
  5.09479000E+00  1.15879000E+00  3.25840000E-01  1.02741000E-01  3.60000000E-02
  7.50000000E-01  3.38650000E+01  5.09479000E+00  1.15879000E+00  3.25840000E-01
  1.02741000E-01  3.60000000E-02  7.50000000E-01  3.38650000E+01  5.09479000E+00
  1.15879000E+00  3.25840000E-01  1.02741000E-01  3.60000000E-02  7.50000000E-01
Contraction coefficients                   R   N=         120
  1.96665025E-03  1.52306019E-02  7.61269097E-02  2.60801033E-01  6.16462078E-01
  2.21006028E-01  1.14660081E-01  9.19999648E-01 -3.03068213E-03  1.00000000E+00
  1.00000000E+00  1.00000000E+00  1.00000000E+00  1.96665025E-03  1.52306019E-02
  7.61269097E-02  2.60801033E-01  6.16462078E-01  2.21006028E-01  1.14660081E-01
  9.19999648E-01 -3.03068213E-03  1.00000000E+00  1.00000000E+00  1.00000000E+00
  1.00000000E+00  1.96665025E-03  1.52306019E-02  7.61269097E-02  2.60801033E-01
  6.16462078E-01  2.21006028E-01  1.14660081E-01  9.19999648E-01 -3.03068213E-03
  1.00000000E+00  1.00000000E+00  1.00000000E+00  1.00000000E+00  1.96665025E-03
  1.52306019E-02  7.61269097E-02  2.60801033E-01  6.16462078E-01  2.21006028E-01
  1.14660081E-01  9.19999648E-01 -3.03068213E-03  1.00000000E+00  1.00000000E+00
  1.00000000E+00  1.00000000E+00  1.96665025E-03  1.52306019E-02  7.61269097E-02
  2.60801033E-01  6.16462078E-01  2.21006028E-01  1.14660081E-01  9.19999648E-01
 -3.03068213E-03  1.00000000E+00  1.00000000E+00  1.00000000E+00  1.00000000E+00
  1.96665025E-03  1.52306019E-02  7.61269097E-02  2.60801033E-01  6.16462078E-01
  2.21006028E-01  1.14660081E-01  9.19999648E-01 -3.03068213E-03  1.00000000E+00
  1.00000000E+00  1.00000000E+00  1.00000000E+00  2.54938145E-02  1.90373109E-01
  8.52161486E-01  1.00000000E+00  1.00000000E+00  1.00000000E+00  1.00000000E+00
  2.54938145E-02  1.90373109E-01  8.52161486E-01  1.00000000E+00  1.00000000E+00
  1.00000000E+00  1.00000000E+00  2.54938145E-02  1.90373109E-01  8.52161486E-01
  1.00000000E+00  1.00000000E+00  1.00000000E+00  1.00000000E+00  2.54938145E-02
  1.90373109E-01  8.52161486E-01  1.00000000E+00  1.00000000E+00  1.00000000E+00
  1.00000000E+00  2.54938145E-02  1.90373109E-01  8.52161486E-01  1.00000000E+00
  1.00000000E+00  1.00000000E+00  1.00000000E+00  2.54938145E-02  1.90373109E-01
  8.52161486E-01  1.00000000E+00  1.00000000E+00  1.00000000E+00  1.00000000E+00
P(S=P) Contraction coefficients            R   N=         120
  0.00000000E+00  0.00000000E+00  0.00000000E+00  0.00000000E+00  0.00000000E+00
  0.00000000E+00  4.02486927E-02  2.37593957E-01  8.15853851E-01  1.00000000E+00
  1.00000000E+00  1.00000000E+00  0.00000000E+00  0.00000000E+00  0.00000000E+00
  0.00000000E+00  0.00000000E+00  0.00000000E+00  0.00000000E+00  4.02486927E-02
  2.37593957E-01  8.15853851E-01  1.00000000E+00  1.00000000E+00  1.00000000E+00
  0.00000000E+00  0.00000000E+00  0.00000000E+00  0.00000000E+00  0.00000000E+00
  0.00000000E+00  0.00000000E+00  4.02486927E-02  2.37593957E-01  8.15853851E-01
  1.00000000E+00  1.00000000E+00  1.00000000E+00  0.00000000E+00  0.00000000E+00
  0.00000000E+00  0.00000000E+00  0.00000000E+00  0.00000000E+00  0.00000000E+00
  4.02486927E-02  2.37593957E-01  8.15853851E-01  1.00000000E+00  1.00000000E+00
  1.00000000E+00  0.00000000E+00  0.00000000E+00  0.00000000E+00  0.00000000E+00
  0.00000000E+00  0.00000000E+00  0.00000000E+00  4.02486927E-02  2.37593957E-01
  8.15853851E-01  1.00000000E+00  1.00000000E+00  1.00000000E+00  0.00000000E+00
  0.00000000E+00  0.00000000E+00  0.00000000E+00  0.00000000E+00  0.00000000E+00
  0.00000000E+00  4.02486927E-02  2.37593957E-01  8.15853851E-01  1.00000000E+00
  1.00000000E+00  1.00000000E+00  0.00000000E+00  0.00000000E+00  0.00000000E+00
  0.00000000E+00  0.00000000E+00  0.00000000E+00  0.00000000E+00  0.00000000E+00
  0.00000000E+00  0.00000000E+00  0.00000000E+00  0.00000000E+00  0.00000000E+00
  0.00000000E+00  0.00000000E+00  0.00000000E+00  0.00000000E+00  0.00000000E+00
  0.00000000E+00  0.00000000E+00  0.00000000E+00  0.00000000E+00  0.00000000E+00
  0.00000000E+00  0.00000000E+00  0.00000000E+00  0.00000000E+00  0.00000000E+00
  0.00000000E+00  0.00000000E+00  0.00000000E+00  0.00000000E+00  0.00000000E+00
  0.00000000E+00  0.00000000E+00  0.00000000E+00  0.00000000E+00  0.00000000E+00
  0.00000000E+00  0.00000000E+00  0.00000000E+00  0.00000000E+00  0.00000000E+00
Coordinates of each shell                  R   N=         198
  1.90185287E-01  2.57622064E+00  6.23676447E-32  1.90185287E-01  2.57622064E+00
  6.23676447E-32  1.90185287E-01  2.57622064E+00  6.23676447E-32  1.90185287E-01
  2.57622064E+00  6.23676447E-32  1.90185287E-01  2.57622064E+00  6.23676447E-32
  1.90185287E-01  2.57622064E+00  6.23676447E-32 -1.90185287E-01  1.31290244E+00
  2.29443744E+00 -1.90185287E-01  1.31290244E+00  2.29443744E+00 -1.90185287E-01
  1.31290244E+00  2.29443744E+00 -1.90185287E-01  1.31290244E+00  2.29443744E+00
 -1.90185287E-01  1.31290244E+00  2.29443744E+00 -1.90185287E-01  1.31290244E+00
  2.29443744E+00  1.90185287E-01 -1.31290244E+00  2.29443744E+00  1.90185287E-01
 -1.31290244E+00  2.29443744E+00  1.90185287E-01 -1.31290244E+00  2.29443744E+00
  1.90185287E-01 -1.31290244E+00  2.29443744E+00  1.90185287E-01 -1.31290244E+00
  2.29443744E+00  1.90185287E-01 -1.31290244E+00  2.29443744E+00 -1.90185287E-01
 -2.57622064E+00  1.03772065E-31 -1.90185287E-01 -2.57622064E+00  1.03772065E-31
 -1.90185287E-01 -2.57622064E+00  1.03772065E-31 -1.90185287E-01 -2.57622064E+00
  1.03772065E-31 -1.90185287E-01 -2.57622064E+00  1.03772065E-31 -1.90185287E-01
 -2.57622064E+00  1.03772065E-31  1.90185287E-01 -1.31290244E+00 -2.29443744E+00
  1.90185287E-01 -1.31290244E+00 -2.29443744E+00  1.90185287E-01 -1.31290244E+00
 -2.29443744E+00  1.90185287E-01 -1.31290244E+00 -2.29443744E+00  1.90185287E-01
 -1.31290244E+00 -2.29443744E+00  1.90185287E-01 -1.31290244E+00 -2.29443744E+00
 -1.90185287E-01  1.31290244E+00 -2.29443744E+00 -1.90185287E-01  1.31290244E+00
 -2.29443744E+00 -1.90185287E-01  1.31290244E+00 -2.29443744E+00 -1.90185287E-01
  1.31290244E+00 -2.29443744E+00 -1.90185287E-01  1.31290244E+00 -2.29443744E+00
 -1.90185287E-01  1.31290244E+00 -2.29443744E+00  1.66163533E-01  4.63057062E+00
  1.13184056E-31  1.66163533E-01  4.63057062E+00  1.13184056E-31  1.66163533E-01
  4.63057062E+00  1.13184056E-31  1.66163533E-01  4.63057062E+00  1.13184056E-31
  1.66163533E-01  4.63057062E+00  1.13184056E-31 -1.50836938E-01  2.36614986E+00
  4.05398790E+00 -1.50836938E-01  2.36614986E+00  4.05398790E+00 -1.50836938E-01
  2.36614986E+00  4.05398790E+00 -1.50836938E-01  2.36614986E+00  4.05398790E+00
 -1.50836938E-01  2.36614986E+00  4.05398790E+00  1.50836938E-01 -2.36614986E+00
  4.05398790E+00  1.50836938E-01 -2.36614986E+00  4.05398790E+00  1.50836938E-01
 -2.36614986E+00  4.05398790E+00  1.50836938E-01 -2.36614986E+00  4.05398790E+00
  1.50836938E-01 -2.36614986E+00  4.05398790E+00 -1.66163533E-01 -4.63057062E+00
  1.83274647E-31 -1.66163533E-01 -4.63057062E+00  1.83274647E-31 -1.66163533E-01
 -4.63057062E+00  1.83274647E-31 -1.66163533E-01 -4.63057062E+00  1.83274647E-31
 -1.66163533E-01 -4.63057062E+00  1.83274647E-31  1.50836938E-01 -2.36614986E+00
 -4.05398790E+00  1.50836938E-01 -2.36614986E+00 -4.05398790E+00  1.50836938E-01
 -2.36614986E+00 -4.05398790E+00  1.50836938E-01 -2.36614986E+00 -4.05398790E+00
  1.50836938E-01 -2.36614986E+00 -4.05398790E+00 -1.50836938E-01  2.36614986E+00
 -4.05398790E+00 -1.50836938E-01  2.36614986E+00 -4.05398790E+00 -1.50836938E-01
  2.36614986E+00 -4.05398790E+00 -1.50836938E-01  2.36614986E+00 -4.05398790E+00
 -1.50836938E-01  2.36614986E+00 -4.05398790E+00
Constraint Structure                       R   N=          36
  1.90185287E-01  2.57622064E+00  6.23676447E-32 -1.90185287E-01  1.31290244E+00
  2.29443744E+00  1.90185287E-01 -1.31290244E+00  2.29443744E+00 -1.90185287E-01
 -2.57622064E+00  1.03772065E-31  1.90185287E-01 -1.31290244E+00 -2.29443744E+00
 -1.90185287E-01  1.31290244E+00 -2.29443744E+00  1.66163533E-01  4.63057062E+00
  1.13184056E-31 -1.50836938E-01  2.36614986E+00  4.05398790E+00  1.50836938E-01
 -2.36614986E+00  4.05398790E+00 -1.66163533E-01 -4.63057062E+00  1.83274647E-31
  1.50836938E-01 -2.36614986E+00 -4.05398790E+00 -1.50836938E-01  2.36614986E+00
 -4.05398790E+00
Num ILSW                                   I              100
ILSW                                       I   N=         100
           0           0           0           0           2           0
           0           0           0           0           0          -1
           0           0           0           0           0           0
           0           0           0           0           0           0
           1           0           0           0           0           0
           0           0      100000           0          -1           0
           0           0           0           0           0           0
           0           0           0           1           0           0
           0           0           1           0           0           0
           0           0           4          40           0           0
           0           0           0           0           0           0
           0           0           0           0           0           0
           0           0           0           0           0           0
           0           0           0           0           0           0
           0           0           0           0           0           0
           0           0           0           0           0           0
           0           0           0           0
Num RLSW                                   I               40
RLSW                                       R   N=          40
  1.00000000E+00  1.00000000E+00  1.00000000E+00  1.00000000E+00  1.00000000E+00
  0.00000000E+00  0.00000000E+00  1.00000000E+00  0.00000000E+00  0.00000000E+00
  0.00000000E+00  0.00000000E+00  1.00000000E+00  0.00000000E+00  0.00000000E+00
  0.00000000E+00  0.00000000E+00  1.00000000E+00  0.00000000E+00  0.00000000E+00
  0.00000000E+00  0.00000000E+00  1.00000000E+00  0.00000000E+00  0.00000000E+00
  0.00000000E+00  0.00000000E+00  1.00000000E+00  0.00000000E+00  0.00000000E+00
  0.00000000E+00  0.00000000E+00  0.00000000E+00  0.00000000E+00  0.00000000E+00
  0.00000000E+00  0.00000000E+00  0.00000000E+00  1.00000000E+00  1.00000000E+00
MxBond                                     I                3
NBond                                      I   N=          12
           3           3           3           3           3           3
           1           1           1           1           1           1
IBond                                      I   N=          36
           2           6           7           1           3           8
           2           4           9           3           5          10
           4           6          11           1           5          12
           1           0           0           2           0           0
           3           0           0           4           0           0
           5           0           0           6           0           0
RBond                                      R   N=          36
  1.50000000E+00  1.50000000E+00  1.00000000E+00  1.50000000E+00  1.50000000E+00
  1.00000000E+00  1.50000000E+00  1.50000000E+00  1.00000000E+00  1.50000000E+00
  1.50000000E+00  1.00000000E+00  1.50000000E+00  1.50000000E+00  1.00000000E+00
  1.50000000E+00  1.50000000E+00  1.00000000E+00  1.00000000E+00  0.00000000E+00
  0.00000000E+00  1.00000000E+00  0.00000000E+00  0.00000000E+00  1.00000000E+00
  0.00000000E+00  0.00000000E+00  1.00000000E+00  0.00000000E+00  0.00000000E+00
  1.00000000E+00  0.00000000E+00  0.00000000E+00  1.00000000E+00  0.00000000E+00
  0.00000000E+00
Virial Ratio                               R      2.001297000521430E+00
SCF Energy                                 R     -2.307219597254813E+02
MP2 Energy                                 R     -2.315588958934510E+02
Total Energy                               R     -2.315588958934510E+02
Post-SCF wavefunction norm                 R      1.146864757289037E+00
RMS Density                                R      5.633382714486125E-09
External E-field                           R   N=          35
  0.00000000E+00  0.00000000E+00  0.00000000E+00  0.00000000E+00  0.00000000E+00
  0.00000000E+00  0.00000000E+00  0.00000000E+00  0.00000000E+00  0.00000000E+00
  0.00000000E+00  0.00000000E+00  0.00000000E+00  0.00000000E+00  0.00000000E+00
  0.00000000E+00  0.00000000E+00  0.00000000E+00  0.00000000E+00  0.00000000E+00
  0.00000000E+00  0.00000000E+00  0.00000000E+00  0.00000000E+00  0.00000000E+00
  0.00000000E+00  0.00000000E+00  0.00000000E+00  0.00000000E+00  0.00000000E+00
  0.00000000E+00  0.00000000E+00  0.00000000E+00  0.00000000E+00  0.00000000E+00
IOpCl                                      I                0
IROHF                                      I                0
Alpha Orbital Energies                     R   N=         174
 -1.12416158E+01 -1.12414015E+01 -1.12406354E+01 -1.12402317E+01 -1.12386208E+01
 -1.12384874E+01 -1.15311963E+00 -1.01684083E+00 -1.01332243E+00 -8.24266990E-01
 -8.19532226E-01 -7.09727493E-01 -6.45649257E-01 -6.10120373E-01 -5.91943719E-01
 -5.82638822E-01 -5.01226726E-01 -4.99736223E-01 -4.90461522E-01 -3.33340197E-01
 -3.30701856E-01  4.20046624E-02  4.93933186E-02  4.95967784E-02  6.74289033E-02
  6.76452194E-02  9.91507707E-02  1.01840123E-01  1.04815110E-01  1.09459436E-01
  1.26046889E-01  1.48090588E-01  1.49176588E-01  1.63138940E-01  1.82915587E-01
  1.84768298E-01  1.85897131E-01  1.86332409E-01  1.91659301E-01  2.11246368E-01
  2.11630548E-01  2.12476099E-01  2.13592554E-01  2.14278489E-01  2.17245199E-01
  2.18918942E-01  2.24714719E-01  2.43809534E-01  2.54790020E-01  2.62160230E-01
  2.62728064E-01  2.89959002E-01  2.90700168E-01  3.18902608E-01  3.44049442E-01
  4.04330675E-01  4.05599177E-01  4.10018939E-01  4.23027012E-01  4.24736951E-01
  4.93681412E-01  4.94248390E-01  5.09911649E-01  5.14046303E-01  5.15212605E-01
  6.06386645E-01  6.15484710E-01  6.32536498E-01  7.28648878E-01  7.40097308E-01
  7.41054641E-01  7.59398696E-01  7.63398360E-01  7.68957948E-01  7.70690928E-01
  7.75415265E-01  8.08826811E-01  8.09083108E-01  8.25811358E-01  8.88088136E-01
  9.23604402E-01  9.25907238E-01  9.43775317E-01  9.48043654E-01  9.74344440E-01
  9.88260565E-01  9.90499991E-01  1.00413656E+00  1.01072905E+00  1.01849870E+00
  1.04423177E+00  1.11677180E+00  1.12061185E+00  1.12546054E+00  1.17616433E+00
  1.18487124E+00  1.34457995E+00  1.37485056E+00  1.37888580E+00  1.39301113E+00
  1.39917751E+00  1.54042310E+00  1.60434536E+00  1.71224134E+00  1.77892495E+00
  1.79302388E+00  1.81400931E+00  1.83819837E+00  1.84282885E+00  1.84630363E+00
  1.89511725E+00  1.90653739E+00  1.93398505E+00  1.94652353E+00  1.97997117E+00
  2.03975311E+00  2.04445033E+00  2.05161723E+00  2.09668467E+00  2.11361678E+00
  2.13066524E+00  2.15517147E+00  2.17189149E+00  2.30504280E+00  2.30531546E+00
  2.31827076E+00  2.34762244E+00  2.35409502E+00  2.39376905E+00  2.40192665E+00
  2.53406603E+00  2.57746091E+00  2.61586340E+00  2.76763976E+00  2.77280430E+00
  2.81192418E+00  2.82661648E+00  2.83681269E+00  2.94214321E+00  2.95964189E+00
  2.96641092E+00  3.00557326E+00  3.02141922E+00  3.02590989E+00  3.04548643E+00
  3.04746030E+00  3.10672747E+00  3.12064785E+00  3.18476350E+00  3.18906941E+00
  3.33340219E+00  3.33957341E+00  3.34108704E+00  3.35601128E+00  3.46637144E+00
  3.52826428E+00  3.76281963E+00  3.76477816E+00  3.84462531E+00  3.89394044E+00
  3.89456840E+00  3.93293498E+00  4.41449780E+00  4.42501334E+00  4.42650567E+00
  4.62625265E+00  4.63828924E+00  4.90252593E+00  2.47621684E+01  2.51102247E+01
  2.51141806E+01  2.52452239E+01  2.52546187E+01  2.52636638E+01
Alpha MO coefficients                      R   N=       30276
  1.13532807E-01  9.39635684E-02 -3.08725221E-05 -5.99358888E-05  0.00000000E+00
  1.18777443E-03 -2.72416275E-05 -1.74107956E-04  0.00000000E+00 -2.63497729E-04
  1.34170228E-04 -2.89938867E-05  0.00000000E+00 -1.28587225E-03 -5.00788272E-04
  2.71085530E-04  0.00000000E+00  6.72960584E-05  0.00000000E+00  0.00000000E+00
  1.09593230E-05  1.00397085E-06  2.69919208E-01  2.23504074E-01  5.86757773E-05
 -3.50801981E-05  2.95712341E-05  2.26040883E-03  3.82685666E-05 -1.44796829E-04
 -1.61893349E-04 -4.50602517E-04 -1.31929577E-04  4.19292773E-05  5.39253066E-05
  5.08969596E-04  5.38287200E-04 -2.00604991E-04 -3.92562309E-04  3.88626213E-05
 -1.33962150E-05 -4.60995334E-05 -1.53862227E-04 -2.46316156E-06  2.69919208E-01
  2.23504074E-01 -5.86757773E-05  3.50801981E-05  2.95712341E-05  2.26040883E-03
 -3.82685666E-05  1.44796829E-04 -1.61893349E-04 -4.50602517E-04  1.31929577E-04
 -4.19292773E-05  5.39253066E-05  5.08969596E-04 -5.38287200E-04  2.00604991E-04
 -3.92562309E-04  3.88626213E-05  1.33962150E-05  4.60995334E-05 -1.53862227E-04
 -2.46316156E-06  1.13532807E-01  9.39635684E-02  3.08725221E-05  5.99358888E-05
  0.00000000E+00  1.18777443E-03  2.72416275E-05  1.74107956E-04  0.00000000E+00
 -2.63497729E-04 -1.34170228E-04  2.89938867E-05  0.00000000E+00 -1.28587225E-03
  5.00788272E-04 -2.71085530E-04  0.00000000E+00  6.72960584E-05  0.00000000E+00
  0.00000000E+00  1.09593230E-05  1.00397085E-06  2.69919208E-01  2.23504074E-01
 -5.86757773E-05  3.50801981E-05 -2.95712341E-05  2.26040883E-03 -3.82685666E-05
  1.44796829E-04  1.61893349E-04 -4.50602517E-04  1.31929577E-04 -4.19292773E-05
 -5.39253066E-05  5.08969596E-04 -5.38287200E-04  2.00604991E-04  3.92562309E-04
  3.88626213E-05 -1.33962150E-05 -4.60995334E-05 -1.53862227E-04 -2.46316156E-06
  2.69919208E-01  2.23504074E-01  5.86757773E-05 -3.50801981E-05 -2.95712341E-05
  2.26040883E-03  3.82685666E-05 -1.44796829E-04  1.61893349E-04 -4.50602517E-04
 -1.31929577E-04  4.19292773E-05 -5.39253066E-05  5.08969596E-04  5.38287200E-04
 -2.00604991E-04  3.92562309E-04  3.88626213E-05  1.33962150E-05  4.60995334E-05
 -1.53862227E-04 -2.46316156E-06  8.68123616E-05  6.89838741E-05  5.37785726E-05
 -4.40033352E-05 -7.83543646E-06 -4.26192770E-05  0.00000000E+00  1.99027754E-04
  5.73108155E-06  1.67311884E-04  2.10010075E-04  1.01843668E-05 -2.31640869E-05
 -3.15234822E-05  1.99027754E-04  5.73108155E-06  1.67311884E-04  2.10010075E-04
 -1.01843668E-05  2.31640869E-05 -3.15234822E-05  8.68123616E-05  6.89838741E-05
  5.37785726E-05 -4.40033352E-05  7.83543646E-06  4.26192770E-05  0.00000000E+00
  1.99027754E-04  5.73108155E-06  1.67311884E-04  2.10010075E-04 -1.01843668E-05
  2.31640869E-05  3.15234822E-05  1.99027754E-04  5.73108155E-06  1.67311884E-04
  2.10010075E-04  1.01843668E-05 -2.31640869E-05  3.15234822E-05  0.00000000E+00
  0.00000000E+00  0.00000000E+00  0.00000000E+00  1.84064637E-04  0.00000000E+00
  0.00000000E+00  0.00000000E+00  1.46972498E-04  0.00000000E+00  0.00000000E+00
  0.00000000E+00  2.44099953E-05  0.00000000E+00  0.00000000E+00  0.00000000E+00
 -3.28113769E-04  0.00000000E+00  1.06441346E-05 -1.02827131E-04  0.00000000E+00
  0.00000000E+00  2.81629609E-01  2.33217388E-01  6.65444873E-05 -6.85511014E-05
  5.04120717E-05  2.27323911E-03  1.27729556E-05 -1.33705975E-04 -8.16198373E-05
 -4.96332895E-04 -1.97600223E-05 -1.54858080E-05 -3.20993577E-06  1.05860100E-03
  5.48071059E-05 -3.16578486E-04 -8.34381439E-04  1.03695820E-05 -1.49212737E-05
 -3.95506473E-05 -1.79203439E-04 -2.04024837E-06  2.81629609E-01  2.33217388E-01
 -6.65444873E-05  6.85511014E-05  5.04120717E-05  2.27323911E-03 -1.27729556E-05
  1.33705975E-04 -8.16198373E-05 -4.96332895E-04  1.97600223E-05  1.54858080E-05
 -3.20993577E-06  1.05860100E-03 -5.48071059E-05  3.16578486E-04 -8.34381439E-04
  1.03695820E-05  1.49212737E-05  3.95506473E-05 -1.79203439E-04 -2.04024837E-06
  0.00000000E+00  0.00000000E+00  0.00000000E+00  0.00000000E+00  1.84064637E-04
  0.00000000E+00  0.00000000E+00  0.00000000E+00  1.46972498E-04  0.00000000E+00
  0.00000000E+00  0.00000000E+00  2.44099953E-05  0.00000000E+00  0.00000000E+00
  0.00000000E+00 -3.28113769E-04  0.00000000E+00 -1.06441346E-05  1.02827131E-04
  0.00000000E+00  0.00000000E+00 -2.81629609E-01 -2.33217388E-01  6.65444873E-05
 -6.85511014E-05  5.04120717E-05 -2.27323911E-03  1.27729556E-05 -1.33705975E-04
 -8.16198373E-05  4.96332895E-04 -1.97600223E-05 -1.54858080E-05 -3.20993577E-06
 -1.05860100E-03  5.48071059E-05 -3.16578486E-04 -8.34381439E-04 -1.03695820E-05
  1.49212737E-05  3.95506473E-05  1.79203439E-04  2.04024837E-06 -2.81629609E-01
 -2.33217388E-01 -6.65444873E-05  6.85511014E-05  5.04120717E-05 -2.27323911E-03
 -1.27729556E-05  1.33705975E-04 -8.16198373E-05  4.96332895E-04  1.97600223E-05