Chair-20                                                                
SP        RMP2-FC                                                     6-311++G(d,p)       
Number of atoms                            I               12
Info1-9                                    I   N=           9
          19          19           0           0           0         110
           1           2           1
Full Title                                 C   N=           1
Chair-20    
Route                                      C   N=           3
#P MP2/6-311++G** nosymm Density=MP2
Charge                                     I                0
Multiplicity                               I                1
Number of electrons                        I               42
Number of alpha electrons                  I               21
Number of beta electrons                   I               21
Number of basis functions                  I              174
Number of independent functions            I              174
Number of point charges in /Mol/           I                0
Number of translation vectors              I                0
Atomic numbers                             I   N=          12
           6           6           6           6           6           6
           1           1           1           1           1           1
Nuclear charges                            R   N=          12
  6.00000000E+00  6.00000000E+00  6.00000000E+00  6.00000000E+00  6.00000000E+00
  6.00000000E+00  1.00000000E+00  1.00000000E+00  1.00000000E+00  1.00000000E+00
  1.00000000E+00  1.00000000E+00
Current cartesian coordinates              R   N=          36
  2.59782073E+00  0.00000000E+00  1.52592342E-01  1.31454688E+00  2.28993438E+00
 -1.52592342E-01 -1.31454688E+00  2.28993438E+00  1.52592342E-01 -2.59782073E+00
  0.00000000E+00 -1.52592342E-01 -1.31454688E+00 -2.28993438E+00  1.52592342E-01
  1.31454688E+00 -2.28993438E+00 -1.52592342E-01  4.65031492E+00  0.00000000E+00
  1.29027949E-01  2.35732634E+00  4.05512769E+00 -1.20904564E-01 -2.35732634E+00
  4.05512769E+00  1.20904564E-01 -4.65031492E+00  0.00000000E+00 -1.29027949E-01
 -2.35732634E+00 -4.05512769E+00  1.20904564E-01  2.35732634E+00 -4.05512769E+00
 -1.20904564E-01
Number of symbols in /Mol/                 I                0
Force Field                                I                0
Atom Types                                 C   N=          12
                                                            
                                                            
                        
Int Atom Types                             I   N=          12
           0           0           0           0           0           0
           0           0           0           0           0           0
MM charges                                 R   N=          12
  0.00000000E+00  0.00000000E+00  0.00000000E+00  0.00000000E+00  0.00000000E+00
  0.00000000E+00  0.00000000E+00  0.00000000E+00  0.00000000E+00  0.00000000E+00
  0.00000000E+00  0.00000000E+00
Integer atomic weights                     I   N=          12
          12          12          12          12          12          12
           1           1           1           1           1           1
Real atomic weights                        R   N=          12
  1.20000000E+01  1.20000000E+01  1.20000000E+01  1.20000000E+01  1.20000000E+01
  1.20000000E+01  1.00782504E+00  1.00782504E+00  1.00782504E+00  1.00782504E+00
  1.00782504E+00  1.00782504E+00
Atom fragment info                         I   N=          12
           0           0           0           0           0           0
           0           0           0           0           0           0
Atom residue num                           I   N=          12
           0           0           0           0           0           0
           0           0           0           0           0           0
Nuclear spins                              I   N=          12
           0           0           0           0           0           0
           1           1           1           1           1           1
Nuclear ZEff                               R   N=          12
 -3.60000000E+00 -3.60000000E+00 -3.60000000E+00 -3.60000000E+00 -3.60000000E+00
 -3.60000000E+00 -1.00000000E+00 -1.00000000E+00 -1.00000000E+00 -1.00000000E+00
 -1.00000000E+00 -1.00000000E+00
Nuclear ZNuc                               R   N=          12
  6.00000000E+00  6.00000000E+00  6.00000000E+00  6.00000000E+00  6.00000000E+00
  6.00000000E+00  1.00000000E+00  1.00000000E+00  1.00000000E+00  1.00000000E+00
  1.00000000E+00  1.00000000E+00
Nuclear QMom                               R   N=          12
  0.00000000E+00  0.00000000E+00  0.00000000E+00  0.00000000E+00  0.00000000E+00
  0.00000000E+00  0.00000000E+00  0.00000000E+00  0.00000000E+00  0.00000000E+00
  0.00000000E+00  0.00000000E+00
Nuclear GFac                               R   N=          12
  0.00000000E+00  0.00000000E+00  0.00000000E+00  0.00000000E+00  0.00000000E+00
  0.00000000E+00  2.79284600E+00  2.79284600E+00  2.79284600E+00  2.79284600E+00
  2.79284600E+00  2.79284600E+00
MicOpt                                     I   N=          12
          -1          -1          -1          -1          -1          -1
          -1          -1          -1          -1          -1          -1
Number of residues                         I                0
Number of secondary structures             I                0
Number of contracted shells                I               66
Number of primitive shells                 I              120
Pure/Cartesian d shells                    I                0
Pure/Cartesian f shells                    I                0
Highest angular momentum                   I                2
Largest degree of contraction              I                6
Shell types                                I   N=          66
           0          -1          -1          -1          -1          -2
           0          -1          -1          -1          -1          -2
           0          -1          -1          -1          -1          -2
           0          -1          -1          -1          -1          -2
           0          -1          -1          -1          -1          -2
           0          -1          -1          -1          -1          -2
           0           0           0           0           1           0
           0           0           0           1           0           0
           0           0           1           0           0           0
           0           1           0           0           0           0
           1           0           0           0           0           1
Number of primitives per shell             I   N=          66
           6           3           1           1           1           1
           6           3           1           1           1           1
           6           3           1           1           1           1
           6           3           1           1           1           1
           6           3           1           1           1           1
           6           3           1           1           1           1
           3           1           1           1           1           3
           1           1           1           1           3           1
           1           1           1           3           1           1
           1           1           3           1           1           1
           1           3           1           1           1           1
Shell to atom map                          I   N=          66
           1           1           1           1           1           1
           2           2           2           2           2           2
           3           3           3           3           3           3
           4           4           4           4           4           4
           5           5           5           5           5           5
           6           6           6           6           6           6
           7           7           7           7           7           8
           8           8           8           8           9           9
           9           9           9          10          10          10
          10          10          11          11          11          11
          11          12          12          12          12          12
Primitive exponents                        R   N=         120
  4.56324000E+03  6.82024000E+02  1.54973000E+02  4.44553000E+01  1.30290000E+01
  1.82773000E+00  2.09642000E+01  4.80331000E+00  1.45933000E+00  4.83456000E-01
  1.45585000E-01  4.38000000E-02  6.26000000E-01  4.56324000E+03  6.82024000E+02
  1.54973000E+02  4.44553000E+01  1.30290000E+01  1.82773000E+00  2.09642000E+01
  4.80331000E+00  1.45933000E+00  4.83456000E-01  1.45585000E-01  4.38000000E-02
  6.26000000E-01  4.56324000E+03  6.82024000E+02  1.54973000E+02  4.44553000E+01
  1.30290000E+01  1.82773000E+00  2.09642000E+01  4.80331000E+00  1.45933000E+00
  4.83456000E-01  1.45585000E-01  4.38000000E-02  6.26000000E-01  4.56324000E+03
  6.82024000E+02  1.54973000E+02  4.44553000E+01  1.30290000E+01  1.82773000E+00
  2.09642000E+01  4.80331000E+00  1.45933000E+00  4.83456000E-01  1.45585000E-01
  4.38000000E-02  6.26000000E-01  4.56324000E+03  6.82024000E+02  1.54973000E+02
  4.44553000E+01  1.30290000E+01  1.82773000E+00  2.09642000E+01  4.80331000E+00
  1.45933000E+00  4.83456000E-01  1.45585000E-01  4.38000000E-02  6.26000000E-01
  4.56324000E+03  6.82024000E+02  1.54973000E+02  4.44553000E+01  1.30290000E+01
  1.82773000E+00  2.09642000E+01  4.80331000E+00  1.45933000E+00  4.83456000E-01
  1.45585000E-01  4.38000000E-02  6.26000000E-01  3.38650000E+01  5.09479000E+00
  1.15879000E+00  3.25840000E-01  1.02741000E-01  3.60000000E-02  7.50000000E-01
  3.38650000E+01  5.09479000E+00  1.15879000E+00  3.25840000E-01  1.02741000E-01
  3.60000000E-02  7.50000000E-01  3.38650000E+01  5.09479000E+00  1.15879000E+00
  3.25840000E-01  1.02741000E-01  3.60000000E-02  7.50000000E-01  3.38650000E+01
  5.09479000E+00  1.15879000E+00  3.25840000E-01  1.02741000E-01  3.60000000E-02
  7.50000000E-01  3.38650000E+01  5.09479000E+00  1.15879000E+00  3.25840000E-01
  1.02741000E-01  3.60000000E-02  7.50000000E-01  3.38650000E+01  5.09479000E+00
  1.15879000E+00  3.25840000E-01  1.02741000E-01  3.60000000E-02  7.50000000E-01
Contraction coefficients                   R   N=         120
  1.96665025E-03  1.52306019E-02  7.61269097E-02  2.60801033E-01  6.16462078E-01
  2.21006028E-01  1.14660081E-01  9.19999648E-01 -3.03068213E-03  1.00000000E+00
  1.00000000E+00  1.00000000E+00  1.00000000E+00  1.96665025E-03  1.52306019E-02
  7.61269097E-02  2.60801033E-01  6.16462078E-01  2.21006028E-01  1.14660081E-01
  9.19999648E-01 -3.03068213E-03  1.00000000E+00  1.00000000E+00  1.00000000E+00
  1.00000000E+00  1.96665025E-03  1.52306019E-02  7.61269097E-02  2.60801033E-01
  6.16462078E-01  2.21006028E-01  1.14660081E-01  9.19999648E-01 -3.03068213E-03
  1.00000000E+00  1.00000000E+00  1.00000000E+00  1.00000000E+00  1.96665025E-03
  1.52306019E-02  7.61269097E-02  2.60801033E-01  6.16462078E-01  2.21006028E-01
  1.14660081E-01  9.19999648E-01 -3.03068213E-03  1.00000000E+00  1.00000000E+00
  1.00000000E+00  1.00000000E+00  1.96665025E-03  1.52306019E-02  7.61269097E-02
  2.60801033E-01  6.16462078E-01  2.21006028E-01  1.14660081E-01  9.19999648E-01
 -3.03068213E-03  1.00000000E+00  1.00000000E+00  1.00000000E+00  1.00000000E+00
  1.96665025E-03  1.52306019E-02  7.61269097E-02  2.60801033E-01  6.16462078E-01
  2.21006028E-01  1.14660081E-01  9.19999648E-01 -3.03068213E-03  1.00000000E+00
  1.00000000E+00  1.00000000E+00  1.00000000E+00  2.54938145E-02  1.90373109E-01
  8.52161486E-01  1.00000000E+00  1.00000000E+00  1.00000000E+00  1.00000000E+00
  2.54938145E-02  1.90373109E-01  8.52161486E-01  1.00000000E+00  1.00000000E+00
  1.00000000E+00  1.00000000E+00  2.54938145E-02  1.90373109E-01  8.52161486E-01
  1.00000000E+00  1.00000000E+00  1.00000000E+00  1.00000000E+00  2.54938145E-02
  1.90373109E-01  8.52161486E-01  1.00000000E+00  1.00000000E+00  1.00000000E+00
  1.00000000E+00  2.54938145E-02  1.90373109E-01  8.52161486E-01  1.00000000E+00
  1.00000000E+00  1.00000000E+00  1.00000000E+00  2.54938145E-02  1.90373109E-01
  8.52161486E-01  1.00000000E+00  1.00000000E+00  1.00000000E+00  1.00000000E+00
P(S=P) Contraction coefficients            R   N=         120
  0.00000000E+00  0.00000000E+00  0.00000000E+00  0.00000000E+00  0.00000000E+00
  0.00000000E+00  4.02486927E-02  2.37593957E-01  8.15853851E-01  1.00000000E+00
  1.00000000E+00  1.00000000E+00  0.00000000E+00  0.00000000E+00  0.00000000E+00
  0.00000000E+00  0.00000000E+00  0.00000000E+00  0.00000000E+00  4.02486927E-02
  2.37593957E-01  8.15853851E-01  1.00000000E+00  1.00000000E+00  1.00000000E+00
  0.00000000E+00  0.00000000E+00  0.00000000E+00  0.00000000E+00  0.00000000E+00
  0.00000000E+00  0.00000000E+00  4.02486927E-02  2.37593957E-01  8.15853851E-01
  1.00000000E+00  1.00000000E+00  1.00000000E+00  0.00000000E+00  0.00000000E+00
  0.00000000E+00  0.00000000E+00  0.00000000E+00  0.00000000E+00  0.00000000E+00
  4.02486927E-02  2.37593957E-01  8.15853851E-01  1.00000000E+00  1.00000000E+00
  1.00000000E+00  0.00000000E+00  0.00000000E+00  0.00000000E+00  0.00000000E+00
  0.00000000E+00  0.00000000E+00  0.00000000E+00  4.02486927E-02  2.37593957E-01
  8.15853851E-01  1.00000000E+00  1.00000000E+00  1.00000000E+00  0.00000000E+00
  0.00000000E+00  0.00000000E+00  0.00000000E+00  0.00000000E+00  0.00000000E+00
  0.00000000E+00  4.02486927E-02  2.37593957E-01  8.15853851E-01  1.00000000E+00
  1.00000000E+00  1.00000000E+00  0.00000000E+00  0.00000000E+00  0.00000000E+00
  0.00000000E+00  0.00000000E+00  0.00000000E+00  0.00000000E+00  0.00000000E+00
  0.00000000E+00  0.00000000E+00  0.00000000E+00  0.00000000E+00  0.00000000E+00
  0.00000000E+00  0.00000000E+00  0.00000000E+00  0.00000000E+00  0.00000000E+00
  0.00000000E+00  0.00000000E+00  0.00000000E+00  0.00000000E+00  0.00000000E+00
  0.00000000E+00  0.00000000E+00  0.00000000E+00  0.00000000E+00  0.00000000E+00
  0.00000000E+00  0.00000000E+00  0.00000000E+00  0.00000000E+00  0.00000000E+00
  0.00000000E+00  0.00000000E+00  0.00000000E+00  0.00000000E+00  0.00000000E+00
  0.00000000E+00  0.00000000E+00  0.00000000E+00  0.00000000E+00  0.00000000E+00
Coordinates of each shell                  R   N=         198
  2.59782073E+00  0.00000000E+00  1.52592342E-01  2.59782073E+00  0.00000000E+00
  1.52592342E-01  2.59782073E+00  0.00000000E+00  1.52592342E-01  2.59782073E+00
  0.00000000E+00  1.52592342E-01  2.59782073E+00  0.00000000E+00  1.52592342E-01
  2.59782073E+00  0.00000000E+00  1.52592342E-01  1.31454688E+00  2.28993438E+00
 -1.52592342E-01  1.31454688E+00  2.28993438E+00 -1.52592342E-01  1.31454688E+00
  2.28993438E+00 -1.52592342E-01  1.31454688E+00  2.28993438E+00 -1.52592342E-01
  1.31454688E+00  2.28993438E+00 -1.52592342E-01  1.31454688E+00  2.28993438E+00
 -1.52592342E-01 -1.31454688E+00  2.28993438E+00  1.52592342E-01 -1.31454688E+00
  2.28993438E+00  1.52592342E-01 -1.31454688E+00  2.28993438E+00  1.52592342E-01
 -1.31454688E+00  2.28993438E+00  1.52592342E-01 -1.31454688E+00  2.28993438E+00
  1.52592342E-01 -1.31454688E+00  2.28993438E+00  1.52592342E-01 -2.59782073E+00
  0.00000000E+00 -1.52592342E-01 -2.59782073E+00  0.00000000E+00 -1.52592342E-01
 -2.59782073E+00  0.00000000E+00 -1.52592342E-01 -2.59782073E+00  0.00000000E+00
 -1.52592342E-01 -2.59782073E+00  0.00000000E+00 -1.52592342E-01 -2.59782073E+00
  0.00000000E+00 -1.52592342E-01 -1.31454688E+00 -2.28993438E+00  1.52592342E-01
 -1.31454688E+00 -2.28993438E+00  1.52592342E-01 -1.31454688E+00 -2.28993438E+00
  1.52592342E-01 -1.31454688E+00 -2.28993438E+00  1.52592342E-01 -1.31454688E+00
 -2.28993438E+00  1.52592342E-01 -1.31454688E+00 -2.28993438E+00  1.52592342E-01
  1.31454688E+00 -2.28993438E+00 -1.52592342E-01  1.31454688E+00 -2.28993438E+00
 -1.52592342E-01  1.31454688E+00 -2.28993438E+00 -1.52592342E-01  1.31454688E+00
 -2.28993438E+00 -1.52592342E-01  1.31454688E+00 -2.28993438E+00 -1.52592342E-01
  1.31454688E+00 -2.28993438E+00 -1.52592342E-01  4.65031492E+00  0.00000000E+00
  1.29027949E-01  4.65031492E+00  0.00000000E+00  1.29027949E-01  4.65031492E+00
  0.00000000E+00  1.29027949E-01  4.65031492E+00  0.00000000E+00  1.29027949E-01
  4.65031492E+00  0.00000000E+00  1.29027949E-01  2.35732634E+00  4.05512769E+00
 -1.20904564E-01  2.35732634E+00  4.05512769E+00 -1.20904564E-01  2.35732634E+00
  4.05512769E+00 -1.20904564E-01  2.35732634E+00  4.05512769E+00 -1.20904564E-01
  2.35732634E+00  4.05512769E+00 -1.20904564E-01 -2.35732634E+00  4.05512769E+00
  1.20904564E-01 -2.35732634E+00  4.05512769E+00  1.20904564E-01 -2.35732634E+00
  4.05512769E+00  1.20904564E-01 -2.35732634E+00  4.05512769E+00  1.20904564E-01
 -2.35732634E+00  4.05512769E+00  1.20904564E-01 -4.65031492E+00  0.00000000E+00
 -1.29027949E-01 -4.65031492E+00  0.00000000E+00 -1.29027949E-01 -4.65031492E+00
  0.00000000E+00 -1.29027949E-01 -4.65031492E+00  0.00000000E+00 -1.29027949E-01
 -4.65031492E+00  0.00000000E+00 -1.29027949E-01 -2.35732634E+00 -4.05512769E+00
  1.20904564E-01 -2.35732634E+00 -4.05512769E+00  1.20904564E-01 -2.35732634E+00
 -4.05512769E+00  1.20904564E-01 -2.35732634E+00 -4.05512769E+00  1.20904564E-01
 -2.35732634E+00 -4.05512769E+00  1.20904564E-01  2.35732634E+00 -4.05512769E+00
 -1.20904564E-01  2.35732634E+00 -4.05512769E+00 -1.20904564E-01  2.35732634E+00
 -4.05512769E+00 -1.20904564E-01  2.35732634E+00 -4.05512769E+00 -1.20904564E-01
  2.35732634E+00 -4.05512769E+00 -1.20904564E-01
Num ILSW                                   I              100
ILSW                                       I   N=         100
           0           0           0           0           2           0
           0           0           0           0           0          -1
           5           0           0           0           0           0
           0           0           0           0           0           0
           1           1           0           0           0           0
           0           0      100000           0          -1           0
           0           0           0           0           0           0
           0           0           0           1           0           0
           0 -2000000000           1           0           0           0
           0           0           4          52           0           0
           0           0           0           0           0           0
           0           0           0          12           0           1
           0           0           0           0           0           0
           0           0           0           0           0           0
           0           0           0           0           0           0
           0           0           0           0           0           0
           0           0           0           0
Num RLSW                                   I               52
RLSW                                       R   N=          52
  1.00000000E+00  1.00000000E+00  1.00000000E+00  1.00000000E+00  1.00000000E+00
  0.00000000E+00  0.00000000E+00  1.00000000E+00  0.00000000E+00  0.00000000E+00
  0.00000000E+00  0.00000000E+00  1.00000000E+00  0.00000000E+00  0.00000000E+00
  0.00000000E+00  0.00000000E+00  1.00000000E+00  0.00000000E+00  0.00000000E+00
  0.00000000E+00  0.00000000E+00  1.00000000E+00  0.00000000E+00  0.00000000E+00
  0.00000000E+00  0.00000000E+00  1.00000000E+00  0.00000000E+00  0.00000000E+00
  0.00000000E+00  0.00000000E+00  1.00000000E+00  0.00000000E+00  0.00000000E+00
  0.00000000E+00  0.00000000E+00  0.00000000E+00  1.00000000E+00  1.00000000E+00
  0.00000000E+00  1.00000000E+00  0.00000000E+00  0.00000000E+00  0.00000000E+00
  0.00000000E+00  0.00000000E+00  0.00000000E+00  0.00000000E+00  0.00000000E+00
  0.00000000E+00  0.00000000E+00
MxBond                                     I                3
NBond                                      I   N=          12
           3           3           3           3           3           3
           1           1           1           1           1           1
IBond                                      I   N=          36
           2           6           7           1           3           8
           2           4           9           3           5          10
           4           6          11           1           5          12
           1           0           0           2           0           0
           3           0           0           4           0           0
           5           0           0           6           0           0
RBond                                      R   N=          36
  1.50000000E+00  1.50000000E+00  1.00000000E+00  1.50000000E+00  1.50000000E+00
  1.00000000E+00  1.50000000E+00  1.50000000E+00  1.00000000E+00  1.50000000E+00
  1.50000000E+00  1.00000000E+00  1.50000000E+00  1.50000000E+00  1.00000000E+00
  1.50000000E+00  1.50000000E+00  1.00000000E+00  1.00000000E+00  0.00000000E+00
  0.00000000E+00  1.00000000E+00  0.00000000E+00  0.00000000E+00  1.00000000E+00
  0.00000000E+00  0.00000000E+00  1.00000000E+00  0.00000000E+00  0.00000000E+00
  1.00000000E+00  0.00000000E+00  0.00000000E+00  1.00000000E+00  0.00000000E+00
  0.00000000E+00
Virial Ratio                               R      2.001297339962108E+00
SCF Energy                                 R     -2.307343329194968E+02
MP2 Energy                                 R     -2.315689627410773E+02
Total Energy                               R     -2.315689627410773E+02
Post-SCF wavefunction norm                 R      1.145875829082099E+00
RMS Density                                R      3.258522901630976E-09
Job Status                                 I                1
Nuclear derivative order                   I                0
External E-field                           R   N=          35
  0.00000000E+00  0.00000000E+00  0.00000000E+00  0.00000000E+00  0.00000000E+00
  0.00000000E+00  0.00000000E+00  0.00000000E+00  0.00000000E+00  0.00000000E+00
  0.00000000E+00  0.00000000E+00  0.00000000E+00  0.00000000E+00  0.00000000E+00
  0.00000000E+00  0.00000000E+00  0.00000000E+00  0.00000000E+00  0.00000000E+00
  0.00000000E+00  0.00000000E+00  0.00000000E+00  0.00000000E+00  0.00000000E+00
  0.00000000E+00  0.00000000E+00  0.00000000E+00  0.00000000E+00  0.00000000E+00
  0.00000000E+00  0.00000000E+00  0.00000000E+00  0.00000000E+00  0.00000000E+00
IOpCl                                      I                0
IROHF                                      I                0
Alpha Orbital Energies                     R   N=         174
 -1.12406335E+01 -1.12403383E+01 -1.12397437E+01 -1.12391468E+01 -1.12381898E+01
 -1.12379444E+01 -1.15275142E+00 -1.01664576E+00 -1.01442786E+00 -8.24595210E-01
 -8.21577350E-01 -7.10014571E-01 -6.45129990E-01 -6.13864932E-01 -5.91081723E-01
 -5.85163731E-01 -5.01523790E-01 -4.98443707E-01 -4.92370252E-01 -3.34549218E-01
 -3.33062017E-01  4.20517407E-02  4.92270405E-02  4.93716010E-02  6.70386664E-02
  6.71990246E-02  9.93213648E-02  1.04432883E-01  1.06339136E-01  1.09737787E-01
  1.32402654E-01  1.49554725E-01  1.50138683E-01  1.63054767E-01  1.82575188E-01
  1.83582105E-01  1.85207604E-01  1.85411057E-01  1.91664406E-01  2.12162048E-01
  2.12942522E-01  2.13156665E-01  2.13590222E-01  2.13892300E-01  2.23597735E-01
  2.24450321E-01  2.27753262E-01  2.38023085E-01  2.54879997E-01  2.55487507E-01
  2.56165815E-01  2.89613410E-01  2.90112862E-01  3.26781040E-01  3.46200146E-01
  4.06110228E-01  4.06110417E-01  4.08558053E-01  4.25465796E-01  4.26192769E-01
  4.94981549E-01  4.95295279E-01  5.09907733E-01  5.12535546E-01  5.39830624E-01
  6.05484000E-01  6.14062992E-01  6.57440190E-01  7.27946923E-01  7.42993781E-01
  7.43747920E-01  7.46553075E-01  7.48410638E-01  7.65878042E-01  7.66720017E-01
  7.75075864E-01  8.12246124E-01  8.12474583E-01  8.22175374E-01  8.83923828E-01
  9.30031110E-01  9.32304846E-01  9.45940168E-01  9.49759377E-01  9.74979782E-01
  9.98847633E-01  9.99626097E-01  1.02031710E+00  1.02357399E+00  1.02469775E+00
  1.05841311E+00  1.11682145E+00  1.11888647E+00  1.12803399E+00  1.18564061E+00
  1.19115029E+00  1.32646610E+00  1.36307908E+00  1.36653386E+00  1.39217808E+00
  1.39627967E+00  1.54538307E+00  1.59679290E+00  1.71255169E+00  1.78126252E+00
  1.79193691E+00  1.80883770E+00  1.83113853E+00  1.84209771E+00  1.84280702E+00
  1.89971308E+00  1.90686655E+00  1.93420834E+00  1.94253560E+00  1.98891042E+00
  2.04774685E+00  2.05214460E+00  2.06929705E+00  2.09976256E+00  2.10977082E+00
  2.12962325E+00  2.17718108E+00  2.18805022E+00  2.28736053E+00  2.29526026E+00
  2.30161835E+00  2.35714282E+00  2.36124735E+00  2.38244515E+00  2.38666282E+00
  2.57548168E+00  2.59422566E+00  2.65440522E+00  2.76197501E+00  2.76522063E+00
  2.79530694E+00  2.82267469E+00  2.82924696E+00  2.94910933E+00  2.96039262E+00
  2.97896473E+00  3.00119174E+00  3.02888304E+00  3.03108048E+00  3.03770696E+00
  3.03894255E+00  3.11028199E+00  3.14472486E+00  3.18719136E+00  3.19028321E+00
  3.31964976E+00  3.32302286E+00  3.33768831E+00  3.34644571E+00  3.46904194E+00
  3.53498108E+00  3.76722721E+00  3.76754203E+00  3.89502914E+00  3.89710752E+00
  3.90552497E+00  3.92985774E+00  4.41166524E+00  4.41781343E+00  4.43309433E+00
  4.60939311E+00  4.61690504E+00  4.99907464E+00  2.47570026E+01  2.51184756E+01
  2.51212613E+01  2.52498423E+01  2.52560920E+01  2.52831483E+01
Alpha MO coefficients                      R   N=       30276
  1.45121785E-01  1.20128999E-01 -5.32364633E-05  1.26476784E-14 -2.90002649E-05
  1.41786073E-03 -1.77833983E-04 -1.30621756E-15 -2.67474649E-05 -3.05507149E-04
 -1.73338604E-05  1.12736703E-13  1.28049724E-04 -1.00435476E-03  1.64909016E-04
 -5.47542747E-13 -5.02443279E-04 -4.69185464E-05  2.25304444E-06 -5.74004916E-16
 -6.32260181E-05 -5.29621868E-15  2.62231497E-01  2.17135240E-01 -3.21502034E-05
  1.49100238E-05  4.59461205E-05  2.22868937E-03 -1.30931126E-04 -1.64998003E-04
  3.38878868E-05 -4.42277051E-04  3.32430494E-05  4.34789186E-05 -1.26382519E-04
  3.65524573E-04 -1.77619034E-04 -3.44244114E-04  5.25352069E-04 -1.45624592E-04
 -1.96534384E-06 -9.84267358E-06  4.13012603E-05 -5.01199103E-05  2.62231497E-01
  2.17135240E-01  3.21502034E-05  1.49100238E-05 -4.59461205E-05  2.22868937E-03
  1.30931126E-04 -1.64998003E-04 -3.38878868E-05 -4.42277050E-04 -3.32430493E-05
  4.34789186E-05  1.26382519E-04  3.65524571E-04  1.77619036E-04 -3.44244113E-04
 -5.25352069E-04 -1.45624592E-04 -1.96534384E-06  9.84267357E-06  4.13012603E-05
  5.01199103E-05  1.45121785E-01  1.20128999E-01  5.32364633E-05  1.50028846E-14
  2.90002649E-05  1.41786073E-03  1.77833983E-04  1.51954326E-15  2.67474649E-05
 -3.05507149E-04  1.73338603E-05  7.26126276E-14 -1.28049724E-04 -1.00435475E-03
 -1.64909015E-04 -1.37250362E-12  5.02443280E-04 -4.69185464E-05  2.25304444E-06
 -1.49004387E-15 -6.32260181E-05  5.41776028E-15  2.62231497E-01  2.17135240E-01
  3.21502034E-05 -1.49100238E-05 -4.59461205E-05  2.22868937E-03  1.30931126E-04
  1.64998003E-04 -3.38878868E-05 -4.42277050E-04 -3.32430494E-05 -4.34789185E-05
  1.26382519E-04  3.65524568E-04  1.77619037E-04  3.44244112E-04 -5.25352068E-04
 -1.45624592E-04 -1.96534384E-06 -9.84267357E-06  4.13012603E-05 -5.01199103E-05
  2.62231497E-01  2.17135240E-01 -3.21502034E-05 -1.49100238E-05  4.59461205E-05
  2.22868937E-03 -1.30931126E-04  1.64998003E-04  3.38878868E-05 -4.42277050E-04
  3.32430494E-05 -4.34789186E-05 -1.26382519E-04  3.65524570E-04 -1.77619035E-04
  3.44244114E-04  5.25352068E-04 -1.45624592E-04 -1.96534384E-06  9.84267357E-06
  4.13012603E-05  5.01199103E-05  1.10817970E-04  5.01997685E-05  9.91790931E-05
 -1.62472592E-05 -4.03912909E-05  3.01970495E-17 -7.62955453E-06  1.95590284E-04
  4.32823927E-07  1.88136667E-04  1.85268288E-04 -2.15030554E-05 -3.06045030E-05
  9.08755244E-06  1.95590284E-04  4.32823832E-07  1.88136667E-04  1.85268289E-04
  2.15030553E-05 -3.06045030E-05 -9.08755245E-06  1.10817970E-04  5.01997685E-05
  9.91790927E-05 -1.62472596E-05  4.03912909E-05 -4.11712657E-15  7.62955453E-06
  1.95590284E-04  4.32823830E-07  1.88136667E-04  1.85268288E-04  2.15030553E-05
  3.06045030E-05 -9.08755244E-06  1.95590284E-04  4.32823835E-07  1.88136667E-04
  1.85268288E-04 -2.15030553E-05  3.06045030E-05  9.08755244E-06 -1.53103534E-11
 -1.26756825E-11  3.23179718E-15  1.84967446E-04  2.12128858E-15 -1.34611713E-13
  1.76679088E-14  1.46300212E-04  2.87790705E-15 -8.13097675E-14  6.70308208E-14
 -6.62997494E-05  3.10796202E-15 -6.01896479E-13 -7.35665846E-14  2.33445673E-04
  1.09949954E-13  7.50174393E-15 -2.21955202E-15  9.77448375E-06  8.34447354E-15
 -1.04062984E-04  2.81625313E-01  2.33215238E-01 -7.38642936E-05  4.76670603E-05
  5.41537500E-05  2.28399946E-03 -1.29327478E-04 -7.64778401E-05  9.01757621E-06
 -4.19367895E-04  2.08025321E-05 -2.86586874E-05 -2.74045553E-06  1.66614083E-04
 -5.67627701E-04 -7.34620896E-04 -3.83403384E-05 -1.63618545E-04 -1.18108257E-06
 -1.21855346E-05  8.17042037E-05 -3.91180182E-05  2.81625313E-01  2.33215238E-01
  7.38642936E-05  4.76670603E-05 -5.41537500E-05  2.28399946E-03  1.29327478E-04
 -7.64778401E-05 -9.01757620E-06 -4.19367896E-04 -2.08025321E-05 -2.86586874E-05
  2.74045552E-06  1.66614093E-04  5.67627703E-04 -7.34620898E-04  3.83403381E-05
 -1.63618545E-04 -1.18108257E-06  1.21855346E-05  8.17042037E-05  3.91180181E-05
 -1.36443627E-11 -1.12973500E-11 -1.55119937E-15  1.84967446E-04 -3.56955564E-15
 -1.24611774E-13 -3.99388816E-15  1.46300212E-04  1.27908835E-15  1.66977589E-13
  3.97637712E-14 -6.62997495E-05  1.30344872E-14 -1.32505865E-12 -5.72130599E-13
  2.33445673E-04 -3.37423904E-14  5.62563702E-15  1.16741992E-15 -9.77448375E-06