Boat-25                                                                 
SP        RMP2-FC                                                     6-311++G(d,p)       
Number of atoms                            I               12
Info1-9                                    I   N=           9
          25          21           0           0           0         110
           1           2           1
Charge                                     I                0
Multiplicity                               I                1
Number of electrons                        I               42
Number of alpha electrons                  I               21
Number of beta electrons                   I               21
Number of basis functions                  I              174
Number of independent functions            I              174
Number of point charges in /Mol/           I                0
Number of translation vectors              I                0
Atomic numbers                             I   N=          12
           6           6           6           6           6           6
           1           1           1           1           1           1
Nuclear charges                            R   N=          12
  6.00000000E+00  6.00000000E+00  6.00000000E+00  6.00000000E+00  6.00000000E+00
  6.00000000E+00  1.00000000E+00  1.00000000E+00  1.00000000E+00  1.00000000E+00
  1.00000000E+00  1.00000000E+00
Current cartesian coordinates              R   N=          36
  8.98999966E-02  2.62834515E+00 -1.91405591E-01 -2.24329680E+00  1.37219244E+00
 -1.91405591E-01 -2.24329680E+00 -1.20768471E+00  3.78777696E-01 -8.98999966E-02
 -2.62834515E+00 -1.91405591E-01  2.24329680E+00 -1.37219244E+00 -1.91405591E-01
  2.24329680E+00  1.20768471E+00  3.78777696E-01  1.83845870E-01  4.67048408E+00
 -3.15233675E-01 -3.99982729E+00  2.41797053E+00 -3.15838387E-01 -4.03386545E+00
 -2.17153554E+00  6.55272975E-01 -1.83845870E-01 -4.67048408E+00 -3.15233675E-01
  3.99982729E+00 -2.41797053E+00 -3.15838387E-01  4.03386545E+00  2.17153554E+00
  6.55272975E-01
Force Field                                I                0
Int Atom Types                             I   N=          12
           0           0           0           0           0           0
           0           0           0           0           0           0
MM charges                                 R   N=          12
  0.00000000E+00  0.00000000E+00  0.00000000E+00  0.00000000E+00  0.00000000E+00
  0.00000000E+00  0.00000000E+00  0.00000000E+00  0.00000000E+00  0.00000000E+00
  0.00000000E+00  0.00000000E+00
Integer atomic weights                     I   N=          12
          12          12          12          12          12          12
           1           1           1           1           1           1
Real atomic weights                        R   N=          12
  1.20000000E+01  1.20000000E+01  1.20000000E+01  1.20000000E+01  1.20000000E+01
  1.20000000E+01  1.00782504E+00  1.00782504E+00  1.00782504E+00  1.00782504E+00
  1.00782504E+00  1.00782504E+00
Atom fragment info                         I   N=          12
           0           0           0           0           0           0
           0           0           0           0           0           0
Atom residue num                           I   N=          12
           0           0           0           0           0           0
           0           0           0           0           0           0
Nuclear spins                              I   N=          12
           0           0           0           0           0           0
           1           1           1           1           1           1
Nuclear ZEff                               R   N=          12
 -3.60000000E+00 -3.60000000E+00 -3.60000000E+00 -3.60000000E+00 -3.60000000E+00
 -3.60000000E+00 -1.00000000E+00 -1.00000000E+00 -1.00000000E+00 -1.00000000E+00
 -1.00000000E+00 -1.00000000E+00
Nuclear QMom                               R   N=          12
  0.00000000E+00  0.00000000E+00  0.00000000E+00  0.00000000E+00  0.00000000E+00
  0.00000000E+00  0.00000000E+00  0.00000000E+00  0.00000000E+00  0.00000000E+00
  0.00000000E+00  0.00000000E+00
Nuclear GFac                               R   N=          12
  0.00000000E+00  0.00000000E+00  0.00000000E+00  0.00000000E+00  0.00000000E+00
  0.00000000E+00  2.79284600E+00  2.79284600E+00  2.79284600E+00  2.79284600E+00
  2.79284600E+00  2.79284600E+00
MicOpt                                     I   N=          12
          -1          -1          -1          -1          -1          -1
          -1          -1          -1          -1          -1          -1
Number of contracted shells                I               66
Number of primitive shells                 I              120
Pure/Cartesian d shells                    I                0
Pure/Cartesian f shells                    I                0
Highest angular momentum                   I                2
Largest degree of contraction              I                6
Shell types                                I   N=          66
           0          -1          -1          -1          -1          -2
           0          -1          -1          -1          -1          -2
           0          -1          -1          -1          -1          -2
           0          -1          -1          -1          -1          -2
           0          -1          -1          -1          -1          -2
           0          -1          -1          -1          -1          -2
           0           0           0           0           1           0
           0           0           0           1           0           0
           0           0           1           0           0           0
           0           1           0           0           0           0
           1           0           0           0           0           1
Number of primitives per shell             I   N=          66
           6           3           1           1           1           1
           6           3           1           1           1           1
           6           3           1           1           1           1
           6           3           1           1           1           1
           6           3           1           1           1           1
           6           3           1           1           1           1
           3           1           1           1           1           3
           1           1           1           1           3           1
           1           1           1           3           1           1
           1           1           3           1           1           1
           1           3           1           1           1           1
Shell to atom map                          I   N=          66
           1           1           1           1           1           1
           2           2           2           2           2           2
           3           3           3           3           3           3
           4           4           4           4           4           4
           5           5           5           5           5           5
           6           6           6           6           6           6
           7           7           7           7           7           8
           8           8           8           8           9           9
           9           9           9          10          10          10
          10          10          11          11          11          11
          11          12          12          12          12          12
Primitive exponents                        R   N=         120
  4.56324000E+03  6.82024000E+02  1.54973000E+02  4.44553000E+01  1.30290000E+01
  1.82773000E+00  2.09642000E+01  4.80331000E+00  1.45933000E+00  4.83456000E-01
  1.45585000E-01  4.38000000E-02  6.26000000E-01  4.56324000E+03  6.82024000E+02
  1.54973000E+02  4.44553000E+01  1.30290000E+01  1.82773000E+00  2.09642000E+01
  4.80331000E+00  1.45933000E+00  4.83456000E-01  1.45585000E-01  4.38000000E-02
  6.26000000E-01  4.56324000E+03  6.82024000E+02  1.54973000E+02  4.44553000E+01
  1.30290000E+01  1.82773000E+00  2.09642000E+01  4.80331000E+00  1.45933000E+00
  4.83456000E-01  1.45585000E-01  4.38000000E-02  6.26000000E-01  4.56324000E+03
  6.82024000E+02  1.54973000E+02  4.44553000E+01  1.30290000E+01  1.82773000E+00
  2.09642000E+01  4.80331000E+00  1.45933000E+00  4.83456000E-01  1.45585000E-01
  4.38000000E-02  6.26000000E-01  4.56324000E+03  6.82024000E+02  1.54973000E+02
  4.44553000E+01  1.30290000E+01  1.82773000E+00  2.09642000E+01  4.80331000E+00
  1.45933000E+00  4.83456000E-01  1.45585000E-01  4.38000000E-02  6.26000000E-01
  4.56324000E+03  6.82024000E+02  1.54973000E+02  4.44553000E+01  1.30290000E+01
  1.82773000E+00  2.09642000E+01  4.80331000E+00  1.45933000E+00  4.83456000E-01
  1.45585000E-01  4.38000000E-02  6.26000000E-01  3.38650000E+01  5.09479000E+00
  1.15879000E+00  3.25840000E-01  1.02741000E-01  3.60000000E-02  7.50000000E-01
  3.38650000E+01  5.09479000E+00  1.15879000E+00  3.25840000E-01  1.02741000E-01
  3.60000000E-02  7.50000000E-01  3.38650000E+01  5.09479000E+00  1.15879000E+00
  3.25840000E-01  1.02741000E-01  3.60000000E-02  7.50000000E-01  3.38650000E+01
  5.09479000E+00  1.15879000E+00  3.25840000E-01  1.02741000E-01  3.60000000E-02
  7.50000000E-01  3.38650000E+01  5.09479000E+00  1.15879000E+00  3.25840000E-01
  1.02741000E-01  3.60000000E-02  7.50000000E-01  3.38650000E+01  5.09479000E+00
  1.15879000E+00  3.25840000E-01  1.02741000E-01  3.60000000E-02  7.50000000E-01
Contraction coefficients                   R   N=         120
  1.96665025E-03  1.52306019E-02  7.61269097E-02  2.60801033E-01  6.16462078E-01
  2.21006028E-01  1.14660081E-01  9.19999648E-01 -3.03068213E-03  1.00000000E+00
  1.00000000E+00  1.00000000E+00  1.00000000E+00  1.96665025E-03  1.52306019E-02
  7.61269097E-02  2.60801033E-01  6.16462078E-01  2.21006028E-01  1.14660081E-01
  9.19999648E-01 -3.03068213E-03  1.00000000E+00  1.00000000E+00  1.00000000E+00
  1.00000000E+00  1.96665025E-03  1.52306019E-02  7.61269097E-02  2.60801033E-01
  6.16462078E-01  2.21006028E-01  1.14660081E-01  9.19999648E-01 -3.03068213E-03
  1.00000000E+00  1.00000000E+00  1.00000000E+00  1.00000000E+00  1.96665025E-03
  1.52306019E-02  7.61269097E-02  2.60801033E-01  6.16462078E-01  2.21006028E-01
  1.14660081E-01  9.19999648E-01 -3.03068213E-03  1.00000000E+00  1.00000000E+00
  1.00000000E+00  1.00000000E+00  1.96665025E-03  1.52306019E-02  7.61269097E-02
  2.60801033E-01  6.16462078E-01  2.21006028E-01  1.14660081E-01  9.19999648E-01
 -3.03068213E-03  1.00000000E+00  1.00000000E+00  1.00000000E+00  1.00000000E+00
  1.96665025E-03  1.52306019E-02  7.61269097E-02  2.60801033E-01  6.16462078E-01
  2.21006028E-01  1.14660081E-01  9.19999648E-01 -3.03068213E-03  1.00000000E+00
  1.00000000E+00  1.00000000E+00  1.00000000E+00  2.54938145E-02  1.90373109E-01
  8.52161486E-01  1.00000000E+00  1.00000000E+00  1.00000000E+00  1.00000000E+00
  2.54938145E-02  1.90373109E-01  8.52161486E-01  1.00000000E+00  1.00000000E+00
  1.00000000E+00  1.00000000E+00  2.54938145E-02  1.90373109E-01  8.52161486E-01
  1.00000000E+00  1.00000000E+00  1.00000000E+00  1.00000000E+00  2.54938145E-02
  1.90373109E-01  8.52161486E-01  1.00000000E+00  1.00000000E+00  1.00000000E+00
  1.00000000E+00  2.54938145E-02  1.90373109E-01  8.52161486E-01  1.00000000E+00
  1.00000000E+00  1.00000000E+00  1.00000000E+00  2.54938145E-02  1.90373109E-01
  8.52161486E-01  1.00000000E+00  1.00000000E+00  1.00000000E+00  1.00000000E+00
P(S=P) Contraction coefficients            R   N=         120
  0.00000000E+00  0.00000000E+00  0.00000000E+00  0.00000000E+00  0.00000000E+00
  0.00000000E+00  4.02486927E-02  2.37593957E-01  8.15853851E-01  1.00000000E+00
  1.00000000E+00  1.00000000E+00  0.00000000E+00  0.00000000E+00  0.00000000E+00
  0.00000000E+00  0.00000000E+00  0.00000000E+00  0.00000000E+00  4.02486927E-02
  2.37593957E-01  8.15853851E-01  1.00000000E+00  1.00000000E+00  1.00000000E+00
  0.00000000E+00  0.00000000E+00  0.00000000E+00  0.00000000E+00  0.00000000E+00
  0.00000000E+00  0.00000000E+00  4.02486927E-02  2.37593957E-01  8.15853851E-01
  1.00000000E+00  1.00000000E+00  1.00000000E+00  0.00000000E+00  0.00000000E+00
  0.00000000E+00  0.00000000E+00  0.00000000E+00  0.00000000E+00  0.00000000E+00
  4.02486927E-02  2.37593957E-01  8.15853851E-01  1.00000000E+00  1.00000000E+00
  1.00000000E+00  0.00000000E+00  0.00000000E+00  0.00000000E+00  0.00000000E+00
  0.00000000E+00  0.00000000E+00  0.00000000E+00  4.02486927E-02  2.37593957E-01
  8.15853851E-01  1.00000000E+00  1.00000000E+00  1.00000000E+00  0.00000000E+00
  0.00000000E+00  0.00000000E+00  0.00000000E+00  0.00000000E+00  0.00000000E+00
  0.00000000E+00  4.02486927E-02  2.37593957E-01  8.15853851E-01  1.00000000E+00
  1.00000000E+00  1.00000000E+00  0.00000000E+00  0.00000000E+00  0.00000000E+00
  0.00000000E+00  0.00000000E+00  0.00000000E+00  0.00000000E+00  0.00000000E+00
  0.00000000E+00  0.00000000E+00  0.00000000E+00  0.00000000E+00  0.00000000E+00
  0.00000000E+00  0.00000000E+00  0.00000000E+00  0.00000000E+00  0.00000000E+00
  0.00000000E+00  0.00000000E+00  0.00000000E+00  0.00000000E+00  0.00000000E+00
  0.00000000E+00  0.00000000E+00  0.00000000E+00  0.00000000E+00  0.00000000E+00
  0.00000000E+00  0.00000000E+00  0.00000000E+00  0.00000000E+00  0.00000000E+00
  0.00000000E+00  0.00000000E+00  0.00000000E+00  0.00000000E+00  0.00000000E+00
  0.00000000E+00  0.00000000E+00  0.00000000E+00  0.00000000E+00  0.00000000E+00
Coordinates of each shell                  R   N=         198
  8.98999966E-02  2.62834515E+00 -1.91405591E-01  8.98999966E-02  2.62834515E+00
 -1.91405591E-01  8.98999966E-02  2.62834515E+00 -1.91405591E-01  8.98999966E-02
  2.62834515E+00 -1.91405591E-01  8.98999966E-02  2.62834515E+00 -1.91405591E-01
  8.98999966E-02  2.62834515E+00 -1.91405591E-01 -2.24329680E+00  1.37219244E+00
 -1.91405591E-01 -2.24329680E+00  1.37219244E+00 -1.91405591E-01 -2.24329680E+00
  1.37219244E+00 -1.91405591E-01 -2.24329680E+00  1.37219244E+00 -1.91405591E-01
 -2.24329680E+00  1.37219244E+00 -1.91405591E-01 -2.24329680E+00  1.37219244E+00
 -1.91405591E-01 -2.24329680E+00 -1.20768471E+00  3.78777696E-01 -2.24329680E+00
 -1.20768471E+00  3.78777696E-01 -2.24329680E+00 -1.20768471E+00  3.78777696E-01
 -2.24329680E+00 -1.20768471E+00  3.78777696E-01 -2.24329680E+00 -1.20768471E+00
  3.78777696E-01 -2.24329680E+00 -1.20768471E+00  3.78777696E-01 -8.98999966E-02
 -2.62834515E+00 -1.91405591E-01 -8.98999966E-02 -2.62834515E+00 -1.91405591E-01
 -8.98999966E-02 -2.62834515E+00 -1.91405591E-01 -8.98999966E-02 -2.62834515E+00
 -1.91405591E-01 -8.98999966E-02 -2.62834515E+00 -1.91405591E-01 -8.98999966E-02
 -2.62834515E+00 -1.91405591E-01  2.24329680E+00 -1.37219244E+00 -1.91405591E-01
  2.24329680E+00 -1.37219244E+00 -1.91405591E-01  2.24329680E+00 -1.37219244E+00
 -1.91405591E-01  2.24329680E+00 -1.37219244E+00 -1.91405591E-01  2.24329680E+00
 -1.37219244E+00 -1.91405591E-01  2.24329680E+00 -1.37219244E+00 -1.91405591E-01
  2.24329680E+00  1.20768471E+00  3.78777696E-01  2.24329680E+00  1.20768471E+00
  3.78777696E-01  2.24329680E+00  1.20768471E+00  3.78777696E-01  2.24329680E+00
  1.20768471E+00  3.78777696E-01  2.24329680E+00  1.20768471E+00  3.78777696E-01
  2.24329680E+00  1.20768471E+00  3.78777696E-01  1.83845870E-01  4.67048408E+00
 -3.15233675E-01  1.83845870E-01  4.67048408E+00 -3.15233675E-01  1.83845870E-01
  4.67048408E+00 -3.15233675E-01  1.83845870E-01  4.67048408E+00 -3.15233675E-01
  1.83845870E-01  4.67048408E+00 -3.15233675E-01 -3.99982729E+00  2.41797053E+00
 -3.15838387E-01 -3.99982729E+00  2.41797053E+00 -3.15838387E-01 -3.99982729E+00
  2.41797053E+00 -3.15838387E-01 -3.99982729E+00  2.41797053E+00 -3.15838387E-01
 -3.99982729E+00  2.41797053E+00 -3.15838387E-01 -4.03386545E+00 -2.17153554E+00
  6.55272975E-01 -4.03386545E+00 -2.17153554E+00  6.55272975E-01 -4.03386545E+00
 -2.17153554E+00  6.55272975E-01 -4.03386545E+00 -2.17153554E+00  6.55272975E-01
 -4.03386545E+00 -2.17153554E+00  6.55272975E-01 -1.83845870E-01 -4.67048408E+00
 -3.15233675E-01 -1.83845870E-01 -4.67048408E+00 -3.15233675E-01 -1.83845870E-01
 -4.67048408E+00 -3.15233675E-01 -1.83845870E-01 -4.67048408E+00 -3.15233675E-01
 -1.83845870E-01 -4.67048408E+00 -3.15233675E-01  3.99982729E+00 -2.41797053E+00
 -3.15838387E-01  3.99982729E+00 -2.41797053E+00 -3.15838387E-01  3.99982729E+00
 -2.41797053E+00 -3.15838387E-01  3.99982729E+00 -2.41797053E+00 -3.15838387E-01
  3.99982729E+00 -2.41797053E+00 -3.15838387E-01  4.03386545E+00  2.17153554E+00
  6.55272975E-01  4.03386545E+00  2.17153554E+00  6.55272975E-01  4.03386545E+00
  2.17153554E+00  6.55272975E-01  4.03386545E+00  2.17153554E+00  6.55272975E-01
  4.03386545E+00  2.17153554E+00  6.55272975E-01
Constraint Structure                       R   N=          36
  8.98999966E-02  2.62834515E+00 -1.91405591E-01 -2.24329680E+00  1.37219244E+00
 -1.91405591E-01 -2.24329680E+00 -1.20768471E+00  3.78777696E-01 -8.98999966E-02
 -2.62834515E+00 -1.91405591E-01  2.24329680E+00 -1.37219244E+00 -1.91405591E-01
  2.24329680E+00  1.20768471E+00  3.78777696E-01  1.83845870E-01  4.67048408E+00
 -3.15233675E-01 -3.99982729E+00  2.41797053E+00 -3.15838387E-01 -4.03386545E+00
 -2.17153554E+00  6.55272975E-01 -1.83845870E-01 -4.67048408E+00 -3.15233675E-01
  3.99982729E+00 -2.41797053E+00 -3.15838387E-01  4.03386545E+00  2.17153554E+00
  6.55272975E-01
Num ILSW                                   I              100
ILSW                                       I   N=         100
           0           0           0           0           2           0
           0           0           0           0           0          -1
           0           0           0           0           0           0
           0           0           0           0           0           0
           1           0           0           0           0           0
           0           0      100000           0          -1           0
           0           0           0           0           0           0
           0           0           0           1           0           0
           0           0           1           0           0           0
           0           0           4          40           0           0
           0           0           0           0           0           0
           0           0           0           0           0           0
           0           0           0           0           0           0
           0           0           0           0           0           0
           0           0           0           0           0           0
           0           0           0           0           0           0
           0           0           0           0
Num RLSW                                   I               40
RLSW                                       R   N=          40
  1.00000000E+00  1.00000000E+00  1.00000000E+00  1.00000000E+00  1.00000000E+00
  0.00000000E+00  0.00000000E+00  1.00000000E+00  0.00000000E+00  0.00000000E+00
  0.00000000E+00  0.00000000E+00  1.00000000E+00  0.00000000E+00  0.00000000E+00
  0.00000000E+00  0.00000000E+00  1.00000000E+00  0.00000000E+00  0.00000000E+00
  0.00000000E+00  0.00000000E+00  1.00000000E+00  0.00000000E+00  0.00000000E+00
  0.00000000E+00  0.00000000E+00  1.00000000E+00  0.00000000E+00  0.00000000E+00
  0.00000000E+00  0.00000000E+00  0.00000000E+00  0.00000000E+00  0.00000000E+00
  0.00000000E+00  0.00000000E+00  0.00000000E+00  1.00000000E+00  1.00000000E+00
MxBond                                     I                3
NBond                                      I   N=          12
           3           3           3           3           3           3
           1           1           1           1           1           1
IBond                                      I   N=          36
           2           6           7           1           3           8
           2           4           9           3           5          10
           4           6          11           1           5          12
           1           0           0           2           0           0
           3           0           0           4           0           0
           5           0           0           6           0           0
RBond                                      R   N=          36
  1.50000000E+00  1.50000000E+00  1.00000000E+00  1.50000000E+00  1.50000000E+00
  1.00000000E+00  1.50000000E+00  1.50000000E+00  1.00000000E+00  1.50000000E+00
  1.50000000E+00  1.00000000E+00  1.50000000E+00  1.50000000E+00  1.00000000E+00
  1.50000000E+00  1.50000000E+00  1.00000000E+00  1.00000000E+00  0.00000000E+00
  0.00000000E+00  1.00000000E+00  0.00000000E+00  0.00000000E+00  1.00000000E+00
  0.00000000E+00  0.00000000E+00  1.00000000E+00  0.00000000E+00  0.00000000E+00
  1.00000000E+00  0.00000000E+00  0.00000000E+00  1.00000000E+00  0.00000000E+00
  0.00000000E+00
Virial Ratio                               R      2.001291853209640E+00
SCF Energy                                 R     -2.307281649902537E+02
MP2 Energy                                 R     -2.315629307695435E+02
Total Energy                               R     -2.315629307695435E+02
Post-SCF wavefunction norm                 R      1.145773582809335E+00
RMS Density                                R      2.002207774954940E-10
External E-field                           R   N=          35
  0.00000000E+00  0.00000000E+00  0.00000000E+00  0.00000000E+00  0.00000000E+00
  0.00000000E+00  0.00000000E+00  0.00000000E+00  0.00000000E+00  0.00000000E+00
  0.00000000E+00  0.00000000E+00  0.00000000E+00  0.00000000E+00  0.00000000E+00
  0.00000000E+00  0.00000000E+00  0.00000000E+00  0.00000000E+00  0.00000000E+00
  0.00000000E+00  0.00000000E+00  0.00000000E+00  0.00000000E+00  0.00000000E+00
  0.00000000E+00  0.00000000E+00  0.00000000E+00  0.00000000E+00  0.00000000E+00
  0.00000000E+00  0.00000000E+00  0.00000000E+00  0.00000000E+00  0.00000000E+00
IOpCl                                      I                0
IROHF                                      I                0
Alpha Orbital Energies                     R   N=         174
 -1.12398882E+01 -1.12396597E+01 -1.12389034E+01 -1.12384713E+01 -1.12369305E+01
 -1.12367844E+01 -1.15417794E+00 -1.01426376E+00 -1.01342492E+00 -8.21280061E-01
 -8.20876818E-01 -7.10476715E-01 -6.47550151E-01 -6.13104087E-01 -5.91480632E-01
 -5.84796227E-01 -5.11358999E-01 -4.98513932E-01 -4.83443820E-01 -3.30769410E-01
 -3.30036575E-01  4.16313367E-02  4.91115427E-02  5.02391360E-02  6.61346669E-02
  7.11514071E-02  9.14949438E-02  9.36148666E-02  1.10140015E-01  1.19099394E-01
  1.43036339E-01  1.50747762E-01  1.64661409E-01  1.67004834E-01  1.76292340E-01
  1.81069664E-01  1.88216858E-01  1.89565550E-01  1.90765074E-01  1.92748466E-01
  2.08567677E-01  2.09003204E-01  2.14203007E-01  2.19159685E-01  2.19812250E-01
  2.30291434E-01  2.36281148E-01  2.38225494E-01  2.42843449E-01  2.57673631E-01
  2.69428869E-01  2.90003949E-01  3.07711423E-01  3.34902391E-01  3.42138037E-01
  3.94385385E-01  4.04746940E-01  4.13569602E-01  4.31748230E-01  4.32938444E-01
  4.64142598E-01  4.95736686E-01  5.02031667E-01  5.13403225E-01  6.05832105E-01
  6.06881733E-01  6.70568200E-01  6.92687770E-01  7.27371703E-01  7.28530379E-01
  7.37695579E-01  7.53059613E-01  7.57757939E-01  7.61656736E-01  7.69749538E-01
  8.08004252E-01  8.17342751E-01  8.20755791E-01  8.29284807E-01  8.66781797E-01
  8.80382267E-01  8.92257354E-01  9.30622816E-01  9.41161333E-01  9.53049917E-01
  9.57174418E-01  9.80540399E-01  1.02323610E+00  1.04002319E+00  1.05308856E+00
  1.08500609E+00  1.08853601E+00  1.11260688E+00  1.13063252E+00  1.20003660E+00
  1.21507490E+00  1.31518657E+00  1.35039631E+00  1.37367221E+00  1.43592596E+00
  1.43745133E+00  1.54218483E+00  1.55346767E+00  1.71999285E+00  1.76020544E+00
  1.79158444E+00  1.80428295E+00  1.83576226E+00  1.84895004E+00  1.85729820E+00
  1.89980068E+00  1.90824324E+00  1.91746894E+00  1.94713166E+00  1.99816615E+00
  2.05768628E+00  2.06808281E+00  2.10169167E+00  2.10428884E+00  2.10999406E+00
  2.13386185E+00  2.14078554E+00  2.16985438E+00  2.29420825E+00  2.31887473E+00
  2.33312141E+00  2.35308049E+00  2.38925627E+00  2.40532460E+00  2.40592716E+00
  2.58474461E+00  2.60678190E+00  2.64705390E+00  2.74589757E+00  2.76425641E+00
  2.77181805E+00  2.81775528E+00  2.83953831E+00  2.92743946E+00  2.96172788E+00
  2.96768290E+00  2.98783540E+00  3.00982449E+00  3.02328232E+00  3.05978831E+00
  3.05990576E+00  3.09188054E+00  3.15759073E+00  3.17488309E+00  3.24445966E+00
  3.27821729E+00  3.31934755E+00  3.32327826E+00  3.39814893E+00  3.48706276E+00
  3.53489279E+00  3.72176852E+00  3.77622038E+00  3.88602934E+00  3.90564676E+00
  3.92724767E+00  3.95557044E+00  4.39944786E+00  4.44406068E+00  4.46685621E+00
  4.52981296E+00  4.64573261E+00  5.04857669E+00  2.47585601E+01  2.51157805E+01
  2.51359835E+01  2.52438903E+01  2.52606680E+01  2.52972289E+01
Alpha MO coefficients                      R   N=       30276
  2.68991335E-01  2.22735777E-01 -5.46999594E-05 -1.21227192E-05  1.19084710E-05
  2.26282556E-03 -4.53724832E-05 -1.79064645E-04  3.63760855E-05 -3.60451052E-04
  5.18035098E-05  3.32596366E-05 -2.53929002E-05 -4.51798758E-04 -2.24159809E-04
 -3.38573042E-04  1.27339013E-04 -1.52643881E-04  2.18083831E-05 -2.18781964E-05
  5.46092608E-05  9.69497598E-06  2.69223323E-01  2.22927926E-01  4.01123902E-05
  3.89270773E-05  1.19103585E-05  2.26442515E-03  1.74497587E-04 -6.07098863E-05
  3.63691784E-05 -3.60856680E-04 -5.63567925E-05 -2.49421467E-05 -2.53362126E-05
 -4.43549527E-04  4.08578431E-04 -1.79613430E-06  1.27989425E-04 -1.52819655E-04
  6.31364119E-06 -3.02926166E-05 -1.25761804E-05  5.40822326E-05  1.17298672E-01
  9.70828259E-02  5.43916201E-05  2.93576047E-05 -3.79676604E-05  1.23184719E-03
  1.39993972E-04  7.54309086E-05 -4.87838089E-05 -4.46335196E-04  1.40491815E-05
  7.51507056E-06  6.88031323E-05  4.19180763E-04 -1.97186919E-05 -1.14935073E-05
 -2.86451742E-04 -1.77380880E-05 -3.12876217E-06 -1.68299478E-06 -3.60710032E-05
 -5.46103028E-05  2.68991335E-01  2.22735777E-01  5.46999594E-05  1.21227192E-05
  1.19084710E-05  2.26282556E-03  4.53724832E-05  1.79064645E-04  3.63760855E-05
 -3.60451052E-04 -5.18035098E-05 -3.32596366E-05 -2.53929002E-05 -4.51798758E-04
  2.24159809E-04  3.38573042E-04  1.27339013E-04 -1.52643881E-04 -2.18083831E-05
  2.18781964E-05  5.46092608E-05  9.69497598E-06  2.69223323E-01  2.22927926E-01
 -4.01123902E-05 -3.89270773E-05  1.19103585E-05  2.26442515E-03 -1.74497587E-04
  6.07098863E-05  3.63691784E-05 -3.60856680E-04  5.63567925E-05  2.49421467E-05
 -2.53362126E-05 -4.43549527E-04 -4.08578431E-04  1.79613430E-06  1.27989425E-04
 -1.52819655E-04 -6.31364119E-06  3.02926166E-05 -1.25761804E-05  5.40822326E-05
  1.17298672E-01  9.70828259E-02 -5.43916201E-05 -2.93576047E-05 -3.79676604E-05
  1.23184719E-03 -1.39993972E-04 -7.54309086E-05 -4.87838089E-05 -4.46335196E-04
 -1.40491815E-05 -7.51507056E-06  6.88031323E-05  4.19180763E-04  1.97186919E-05
  1.14935073E-05 -2.86451742E-04 -1.77380880E-05  3.12876217E-06  1.68299478E-06
 -3.60710032E-05 -5.46103028E-05  2.03705245E-04 -5.50904125E-05  2.96139388E-04
  2.10078665E-04 -7.85221191E-06 -2.38569531E-05  3.19717893E-06  2.03888406E-04
 -5.52044080E-05  2.96636999E-04  2.11616975E-04  2.42556876E-05 -6.57509983E-06
  3.21041665E-06  9.18900062E-05  6.90147498E-05  9.77361148E-05  2.69790239E-05
  3.71803656E-05  2.00252697E-05 -1.19684292E-05  2.03705245E-04 -5.50904125E-05
  2.96139388E-04  2.10078665E-04  7.85221191E-06  2.38569531E-05  3.19717893E-06
  2.03888406E-04 -5.52044080E-05  2.96636999E-04  2.11616975E-04 -2.42556876E-05
  6.57509983E-06  3.21041665E-06  9.18900062E-05  6.90147498E-05  9.77361148E-05
  2.69790239E-05 -3.71803656E-05 -2.00252697E-05 -1.19684292E-05  2.81431355E-01
  2.33053231E-01 -9.60156425E-05 -6.00310663E-06  9.17589093E-06  2.29060224E-03
 -7.40287394E-05 -1.19378894E-04  1.36434514E-05 -4.17651281E-04  2.35333020E-05
 -4.48266780E-06  7.12786671E-06  8.29359368E-04  4.24289892E-05 -8.90053394E-04
  5.11402764E-05 -1.60002904E-04  2.59324709E-05 -1.61717788E-05  7.15789554E-05
  4.58555315E-05  2.81819152E-01  2.33374422E-01  5.76740484E-05  7.66984663E-05
  9.18194902E-06  2.29337473E-03  1.40501998E-04 -4.00027579E-06  1.36825796E-05
 -4.18420117E-04 -9.45413090E-06 -2.20404232E-05  7.06922969E-06  8.31665355E-04
  7.20793227E-04 -5.25425672E-04  5.18348269E-05 -1.60277679E-04 -6.93890477E-07
 -3.06340211E-05  1.39427686E-05  8.39120470E-05  8.26798737E-05  6.84302124E-05
 -8.73276005E-05  1.62329530E-04 -2.98083170E-08  8.51203262E-07 -7.04500855E-05
  1.31086369E-04 -4.60911345E-08 -1.08572058E-07  2.83056240E-05 -5.22279980E-05
 -4.84094498E-09  7.45804948E-07  8.14479467E-05 -1.50104206E-04 -3.62924028E-07
 -1.68992871E-08 -1.63368901E-06  2.97964534E-06 -8.60552612E-05  5.67028874E-05
 -2.81431355E-01 -2.33053231E-01 -9.60156425E-05 -6.00310663E-06 -9.17589093E-06
 -2.29060224E-03 -7.40287394E-05 -1.19378894E-04 -1.36434514E-05  4.17651281E-04
  2.35333020E-05 -4.48266780E-06 -7.12786671E-06 -8.29359368E-04  4.24289892E-05
 -8.90053394E-04 -5.11402764E-05  1.60002904E-04  2.59324709E-05 -1.61717788E-05
 -7.15789554E-05 -4.58555315E-05 -2.81819152E-01 -2.33374422E-01  5.76740484E-05
  7.66984663E-05 -9.18194902E-06 -2.29337473E-03  1.40501998E-04 -4.00027579E-06
 -1.36825796E-05  4.18420117E-04 -9.45413090E-06 -2.20404232E-05 -7.06922969E-06
 -8.31665355E-04  7.20793227E-04 -5.25425672E-04 -5.18348269E-05  1.60277679E-04
 -6.93890477E-07 -3.06340211E-05 -1.39427686E-05 -8.39120470E-05 -8.26798737E-05
 -6.84302124E-05 -8.73276005E-05  1.62329530E-04  2.98083170E-08 -8.51203262E-07
 -7.04500855E-05  1.31086369E-04  4.60911345E-08  1.08572058E-07  2.83056240E-05