X=CONH2                                                                 
SP        RMP2-FC                                                     6-311++G(d,p)       
Number of atoms                            I               16
Info1-9                                    I   N=           9
          27          25           0           0           0         110
           1           2           1
Charge                                     I                0
Multiplicity                               I                1
Number of electrons                        I               64
Number of alpha electrons                  I               32
Number of beta electrons                   I               32
Number of basis functions                  I              247
Number of independent functions            I              247
Number of point charges in /Mol/           I                0
Number of translation vectors              I                0
Atomic numbers                             I   N=          16
           6           6           6           6           6           6
           6           1           1           1           1           1
           8           7           1           1
Nuclear charges                            R   N=          16
  6.00000000E+00  6.00000000E+00  6.00000000E+00  6.00000000E+00  6.00000000E+00
  6.00000000E+00  6.00000000E+00  1.00000000E+00  1.00000000E+00  1.00000000E+00
  1.00000000E+00  1.00000000E+00  8.00000000E+00  7.00000000E+00  1.00000000E+00
  1.00000000E+00
Current cartesian coordinates              R   N=          48
  3.49855015E+00  2.31765840E+00 -2.64446385E-01  8.66964776E-01  2.25202632E+00
 -2.96860858E-01 -4.15076455E-01 -4.68368622E-02 -3.18267675E-02  9.75984966E-01
 -2.27828784E+00  2.40307024E-01  3.60278555E+00 -2.20830183E+00  2.92136542E-01
  4.86975055E+00  9.00926934E-02  4.22127024E-02 -3.24790254E+00 -2.58523984E-01
 -7.09346499E-02 -4.03437632E-02 -4.04693922E+00  4.03751327E-01  4.66448471E+00
 -3.94531164E+00  5.19723819E-01  6.91755227E+00  1.43375411E-01  7.20590369E-02
  4.47605823E+00  4.10310188E+00 -4.94388261E-01 -1.71315012E-01  3.99249810E+00
 -5.96985272E-01 -4.31837381E+00 -2.23213128E+00 -5.93579986E-01 -4.57031588E+00
  1.90513496E+00  4.77070811E-01 -6.46125333E+00  1.71941268E+00  6.33233999E-01
 -3.75234225E+00  3.34800511E+00  1.40822580E+00
Force Field                                I                0
Int Atom Types                             I   N=          16
           0           0           0           0           0           0
           0           0           0           0           0           0
           0           0           0           0
MM charges                                 R   N=          16
  0.00000000E+00  0.00000000E+00  0.00000000E+00  0.00000000E+00  0.00000000E+00
  0.00000000E+00  0.00000000E+00  0.00000000E+00  0.00000000E+00  0.00000000E+00
  0.00000000E+00  0.00000000E+00  0.00000000E+00  0.00000000E+00  0.00000000E+00
  0.00000000E+00
Integer atomic weights                     I   N=          16
          12          12          12          12          12          12
          12           1           1           1           1           1
          16          14           1           1
Real atomic weights                        R   N=          16
  1.20000000E+01  1.20000000E+01  1.20000000E+01  1.20000000E+01  1.20000000E+01
  1.20000000E+01  1.20000000E+01  1.00782504E+00  1.00782504E+00  1.00782504E+00
  1.00782504E+00  1.00782504E+00  1.59949146E+01  1.40030740E+01  1.00782504E+00
  1.00782504E+00
Atom fragment info                         I   N=          16
           0           0           0           0           0           0
           0           0           0           0           0           0
           0           0           0           0
Atom residue num                           I   N=          16
           0           0           0           0           0           0
           0           0           0           0           0           0
           0           0           0           0
Nuclear spins                              I   N=          16
           0           0           0           0           0           0
           0           1           1           1           1           1
           0           2           1           1
Nuclear ZEff                               R   N=          16
 -3.60000000E+00 -3.60000000E+00 -3.60000000E+00 -3.60000000E+00 -3.60000000E+00
 -3.60000000E+00 -3.60000000E+00 -1.00000000E+00 -1.00000000E+00 -1.00000000E+00
 -1.00000000E+00 -1.00000000E+00 -5.60000000E+00 -4.55000000E+00 -1.00000000E+00
 -1.00000000E+00
Nuclear QMom                               R   N=          16
  0.00000000E+00  0.00000000E+00  0.00000000E+00  0.00000000E+00  0.00000000E+00
  0.00000000E+00  0.00000000E+00  0.00000000E+00  0.00000000E+00  0.00000000E+00
  0.00000000E+00  0.00000000E+00  0.00000000E+00  2.04400000E+00  0.00000000E+00
  0.00000000E+00
Nuclear GFac                               R   N=          16
  0.00000000E+00  0.00000000E+00  0.00000000E+00  0.00000000E+00  0.00000000E+00
  0.00000000E+00  0.00000000E+00  2.79284600E+00  2.79284600E+00  2.79284600E+00
  2.79284600E+00  2.79284600E+00  0.00000000E+00  4.03761000E-01  2.79284600E+00
  2.79284600E+00
MicOpt                                     I   N=          16
          -1          -1          -1          -1          -1          -1
          -1          -1          -1          -1          -1          -1
          -1          -1          -1          -1
Number of contracted shells                I               89
Number of primitive shells                 I              166
Pure/Cartesian d shells                    I                0
Pure/Cartesian f shells                    I                0
Highest angular momentum                   I                2
Largest degree of contraction              I                6
Shell types                                I   N=          89
           0          -1          -1          -1          -1          -2
           0          -1          -1          -1          -1          -2
           0          -1          -1          -1          -1          -2
           0          -1          -1          -1          -1          -2
           0          -1          -1          -1          -1          -2
           0          -1          -1          -1          -1          -2
           0          -1          -1          -1          -1          -2
           0           0           0           0           1           0
           0           0           0           1           0           0
           0           0           1           0           0           0
           0           1           0           0           0           0
           1           0          -1          -1          -1          -1
          -2           0          -1          -1          -1          -1
          -2           0           0           0           0           1
           0           0           0           0           1
Number of primitives per shell             I   N=          89
           6           3           1           1           1           1
           6           3           1           1           1           1
           6           3           1           1           1           1
           6           3           1           1           1           1
           6           3           1           1           1           1
           6           3           1           1           1           1
           6           3           1           1           1           1
           3           1           1           1           1           3
           1           1           1           1           3           1
           1           1           1           3           1           1
           1           1           3           1           1           1
           1           6           3           1           1           1
           1           6           3           1           1           1
           1           3           1           1           1           1
           3           1           1           1           1
Shell to atom map                          I   N=          89
           1           1           1           1           1           1
           2           2           2           2           2           2
           3           3           3           3           3           3
           4           4           4           4           4           4
           5           5           5           5           5           5
           6           6           6           6           6           6
           7           7           7           7           7           7
           8           8           8           8           8           9
           9           9           9           9          10          10
          10          10          10          11          11          11
          11          11          12          12          12          12
          12          13          13          13          13          13
          13          14          14          14          14          14
          14          15          15          15          15          15
          16          16          16          16          16
Primitive exponents                        R   N=         166
  4.56324000E+03  6.82024000E+02  1.54973000E+02  4.44553000E+01  1.30290000E+01
  1.82773000E+00  2.09642000E+01  4.80331000E+00  1.45933000E+00  4.83456000E-01
  1.45585000E-01  4.38000000E-02  6.26000000E-01  4.56324000E+03  6.82024000E+02
  1.54973000E+02  4.44553000E+01  1.30290000E+01  1.82773000E+00  2.09642000E+01
  4.80331000E+00  1.45933000E+00  4.83456000E-01  1.45585000E-01  4.38000000E-02
  6.26000000E-01  4.56324000E+03  6.82024000E+02  1.54973000E+02  4.44553000E+01
  1.30290000E+01  1.82773000E+00  2.09642000E+01  4.80331000E+00  1.45933000E+00
  4.83456000E-01  1.45585000E-01  4.38000000E-02  6.26000000E-01  4.56324000E+03
  6.82024000E+02  1.54973000E+02  4.44553000E+01  1.30290000E+01  1.82773000E+00
  2.09642000E+01  4.80331000E+00  1.45933000E+00  4.83456000E-01  1.45585000E-01
  4.38000000E-02  6.26000000E-01  4.56324000E+03  6.82024000E+02  1.54973000E+02
  4.44553000E+01  1.30290000E+01  1.82773000E+00  2.09642000E+01  4.80331000E+00
  1.45933000E+00  4.83456000E-01  1.45585000E-01  4.38000000E-02  6.26000000E-01
  4.56324000E+03  6.82024000E+02  1.54973000E+02  4.44553000E+01  1.30290000E+01
  1.82773000E+00  2.09642000E+01  4.80331000E+00  1.45933000E+00  4.83456000E-01
  1.45585000E-01  4.38000000E-02  6.26000000E-01  4.56324000E+03  6.82024000E+02
  1.54973000E+02  4.44553000E+01  1.30290000E+01  1.82773000E+00  2.09642000E+01
  4.80331000E+00  1.45933000E+00  4.83456000E-01  1.45585000E-01  4.38000000E-02
  6.26000000E-01  3.38650000E+01  5.09479000E+00  1.15879000E+00  3.25840000E-01
  1.02741000E-01  3.60000000E-02  7.50000000E-01  3.38650000E+01  5.09479000E+00
  1.15879000E+00  3.25840000E-01  1.02741000E-01  3.60000000E-02  7.50000000E-01
  3.38650000E+01  5.09479000E+00  1.15879000E+00  3.25840000E-01  1.02741000E-01
  3.60000000E-02  7.50000000E-01  3.38650000E+01  5.09479000E+00  1.15879000E+00
  3.25840000E-01  1.02741000E-01  3.60000000E-02  7.50000000E-01  3.38650000E+01
  5.09479000E+00  1.15879000E+00  3.25840000E-01  1.02741000E-01  3.60000000E-02
  7.50000000E-01  8.58850000E+03  1.29723000E+03  2.99296000E+02  8.73771000E+01
  2.56789000E+01  3.74004000E+00  4.21175000E+01  9.62837000E+00  2.85332000E+00
  9.05661000E-01  2.55611000E-01  8.45000000E-02  1.29200000E+00  6.29348000E+03
  9.49044000E+02  2.18776000E+02  6.36916000E+01  1.88282000E+01  2.72023000E+00
  3.06331000E+01  7.02614000E+00  2.11205000E+00  6.84009000E-01  2.00878000E-01
  6.39000000E-02  9.13000000E-01  3.38650000E+01  5.09479000E+00  1.15879000E+00
  3.25840000E-01  1.02741000E-01  3.60000000E-02  7.50000000E-01  3.38650000E+01
  5.09479000E+00  1.15879000E+00  3.25840000E-01  1.02741000E-01  3.60000000E-02
  7.50000000E-01
Contraction coefficients                   R   N=         166
  1.96665025E-03  1.52306019E-02  7.61269097E-02  2.60801033E-01  6.16462078E-01
  2.21006028E-01  1.14660081E-01  9.19999648E-01 -3.03068213E-03  1.00000000E+00
  1.00000000E+00  1.00000000E+00  1.00000000E+00  1.96665025E-03  1.52306019E-02
  7.61269097E-02  2.60801033E-01  6.16462078E-01  2.21006028E-01  1.14660081E-01
  9.19999648E-01 -3.03068213E-03  1.00000000E+00  1.00000000E+00  1.00000000E+00
  1.00000000E+00  1.96665025E-03  1.52306019E-02  7.61269097E-02  2.60801033E-01
  6.16462078E-01  2.21006028E-01  1.14660081E-01  9.19999648E-01 -3.03068213E-03
  1.00000000E+00  1.00000000E+00  1.00000000E+00  1.00000000E+00  1.96665025E-03
  1.52306019E-02  7.61269097E-02  2.60801033E-01  6.16462078E-01  2.21006028E-01
  1.14660081E-01  9.19999648E-01 -3.03068213E-03  1.00000000E+00  1.00000000E+00
  1.00000000E+00  1.00000000E+00  1.96665025E-03  1.52306019E-02  7.61269097E-02
  2.60801033E-01  6.16462078E-01  2.21006028E-01  1.14660081E-01  9.19999648E-01
 -3.03068213E-03  1.00000000E+00  1.00000000E+00  1.00000000E+00  1.00000000E+00
  1.96665025E-03  1.52306019E-02  7.61269097E-02  2.60801033E-01  6.16462078E-01
  2.21006028E-01  1.14660081E-01  9.19999648E-01 -3.03068213E-03  1.00000000E+00
  1.00000000E+00  1.00000000E+00  1.00000000E+00  1.96665025E-03  1.52306019E-02
  7.61269097E-02  2.60801033E-01  6.16462078E-01  2.21006028E-01  1.14660081E-01
  9.19999648E-01 -3.03068213E-03  1.00000000E+00  1.00000000E+00  1.00000000E+00
  1.00000000E+00  2.54938145E-02  1.90373109E-01  8.52161486E-01  1.00000000E+00
  1.00000000E+00  1.00000000E+00  1.00000000E+00  2.54938145E-02  1.90373109E-01
  8.52161486E-01  1.00000000E+00  1.00000000E+00  1.00000000E+00  1.00000000E+00
  2.54938145E-02  1.90373109E-01  8.52161486E-01  1.00000000E+00  1.00000000E+00
  1.00000000E+00  1.00000000E+00  2.54938145E-02  1.90373109E-01  8.52161486E-01
  1.00000000E+00  1.00000000E+00  1.00000000E+00  1.00000000E+00  2.54938145E-02
  1.90373109E-01  8.52161486E-01  1.00000000E+00  1.00000000E+00  1.00000000E+00
  1.00000000E+00  1.89515008E-03  1.43859006E-02  7.07320031E-02  2.40001011E-01
  5.94797026E-01  2.80802012E-01  1.13889012E-01  9.20811101E-01 -3.27447036E-03
  1.00000000E+00  1.00000000E+00  1.00000000E+00  1.00000000E+00  1.96978815E-03
  1.49612859E-02  7.35005308E-02  2.48936766E-01  6.02459433E-01  2.56201759E-01
  1.11906080E-01  9.21666655E-01 -2.56919183E-03  1.00000000E+00  1.00000000E+00
  1.00000000E+00  1.00000000E+00  2.54938145E-02  1.90373109E-01  8.52161486E-01
  1.00000000E+00  1.00000000E+00  1.00000000E+00  1.00000000E+00  2.54938145E-02
  1.90373109E-01  8.52161486E-01  1.00000000E+00  1.00000000E+00  1.00000000E+00
  1.00000000E+00
P(S=P) Contraction coefficients            R   N=         166
  0.00000000E+00  0.00000000E+00  0.00000000E+00  0.00000000E+00  0.00000000E+00
  0.00000000E+00  4.02486927E-02  2.37593957E-01  8.15853851E-01  1.00000000E+00
  1.00000000E+00  1.00000000E+00  0.00000000E+00  0.00000000E+00  0.00000000E+00
  0.00000000E+00  0.00000000E+00  0.00000000E+00  0.00000000E+00  4.02486927E-02
  2.37593957E-01  8.15853851E-01  1.00000000E+00  1.00000000E+00  1.00000000E+00
  0.00000000E+00  0.00000000E+00  0.00000000E+00  0.00000000E+00  0.00000000E+00
  0.00000000E+00  0.00000000E+00  4.02486927E-02  2.37593957E-01  8.15853851E-01
  1.00000000E+00  1.00000000E+00  1.00000000E+00  0.00000000E+00  0.00000000E+00
  0.00000000E+00  0.00000000E+00  0.00000000E+00  0.00000000E+00  0.00000000E+00
  4.02486927E-02  2.37593957E-01  8.15853851E-01  1.00000000E+00  1.00000000E+00
  1.00000000E+00  0.00000000E+00  0.00000000E+00  0.00000000E+00  0.00000000E+00
  0.00000000E+00  0.00000000E+00  0.00000000E+00  4.02486927E-02  2.37593957E-01
  8.15853851E-01  1.00000000E+00  1.00000000E+00  1.00000000E+00  0.00000000E+00
  0.00000000E+00  0.00000000E+00  0.00000000E+00  0.00000000E+00  0.00000000E+00
  0.00000000E+00  4.02486927E-02  2.37593957E-01  8.15853851E-01  1.00000000E+00
  1.00000000E+00  1.00000000E+00  0.00000000E+00  0.00000000E+00  0.00000000E+00
  0.00000000E+00  0.00000000E+00  0.00000000E+00  0.00000000E+00  4.02486927E-02
  2.37593957E-01  8.15853851E-01  1.00000000E+00  1.00000000E+00  1.00000000E+00
  0.00000000E+00  0.00000000E+00  0.00000000E+00  0.00000000E+00  0.00000000E+00
  0.00000000E+00  0.00000000E+00  0.00000000E+00  0.00000000E+00  0.00000000E+00
  0.00000000E+00  0.00000000E+00  0.00000000E+00  0.00000000E+00  0.00000000E+00
  0.00000000E+00  0.00000000E+00  0.00000000E+00  0.00000000E+00  0.00000000E+00
  0.00000000E+00  0.00000000E+00  0.00000000E+00  0.00000000E+00  0.00000000E+00
  0.00000000E+00  0.00000000E+00  0.00000000E+00  0.00000000E+00  0.00000000E+00
  0.00000000E+00  0.00000000E+00  0.00000000E+00  0.00000000E+00  0.00000000E+00
  0.00000000E+00  0.00000000E+00  0.00000000E+00  0.00000000E+00  0.00000000E+00
  0.00000000E+00  0.00000000E+00  3.65113974E-02  2.37152983E-01  8.19701941E-01
  1.00000000E+00  1.00000000E+00  1.00000000E+00  0.00000000E+00  0.00000000E+00
  0.00000000E+00  0.00000000E+00  0.00000000E+00  0.00000000E+00  0.00000000E+00
  3.83119186E-02  2.37403116E-01  8.17592398E-01  1.00000000E+00  1.00000000E+00
  1.00000000E+00  0.00000000E+00  0.00000000E+00  0.00000000E+00  0.00000000E+00
  0.00000000E+00  0.00000000E+00  0.00000000E+00  0.00000000E+00  0.00000000E+00
  0.00000000E+00  0.00000000E+00  0.00000000E+00  0.00000000E+00  0.00000000E+00
  0.00000000E+00
Coordinates of each shell                  R   N=         267
  3.49855058E+00  2.31765821E+00 -2.64446415E-01  3.49855058E+00  2.31765821E+00
 -2.64446415E-01  3.49855058E+00  2.31765821E+00 -2.64446415E-01  3.49855058E+00
  2.31765821E+00 -2.64446415E-01  3.49855058E+00  2.31765821E+00 -2.64446415E-01
  3.49855058E+00  2.31765821E+00 -2.64446415E-01  8.66965207E-01  2.25202629E+00
 -2.96860887E-01  8.66965207E-01  2.25202629E+00 -2.96860887E-01  8.66965207E-01
  2.25202629E+00 -2.96860887E-01  8.66965207E-01  2.25202629E+00 -2.96860887E-01
  8.66965207E-01  2.25202629E+00 -2.96860887E-01  8.66965207E-01  2.25202629E+00
 -2.96860887E-01 -4.15076163E-01 -4.68368077E-02 -3.18267971E-02 -4.15076163E-01
 -4.68368077E-02 -3.18267971E-02 -4.15076163E-01 -4.68368077E-02 -3.18267971E-02
 -4.15076163E-01 -4.68368077E-02 -3.18267971E-02 -4.15076163E-01 -4.68368077E-02
 -3.18267971E-02 -4.15076163E-01 -4.68368077E-02 -3.18267971E-02  9.75985124E-01
 -2.27828787E+00  2.40306994E-01  9.75985124E-01 -2.27828787E+00  2.40306994E-01
  9.75985124E-01 -2.27828787E+00  2.40306994E-01  9.75985124E-01 -2.27828787E+00
  2.40306994E-01  9.75985124E-01 -2.27828787E+00  2.40306994E-01  9.75985124E-01
 -2.27828787E+00  2.40306994E-01  3.60278571E+00 -2.20830202E+00  2.92136513E-01
  3.60278571E+00 -2.20830202E+00  2.92136513E-01  3.60278571E+00 -2.20830202E+00
  2.92136513E-01  3.60278571E+00 -2.20830202E+00  2.92136513E-01  3.60278571E+00
 -2.20830202E+00  2.92136513E-01  3.60278571E+00 -2.20830202E+00  2.92136513E-01
  4.86975085E+00  9.00924300E-02  4.22126728E-02  4.86975085E+00  9.00924300E-02
  4.22126728E-02  4.86975085E+00  9.00924300E-02  4.22126728E-02  4.86975085E+00
  9.00924300E-02  4.22126728E-02  4.86975085E+00  9.00924300E-02  4.22126728E-02
  4.86975085E+00  9.00924300E-02  4.22126728E-02 -3.24790226E+00 -2.58523759E-01
 -7.09346794E-02 -3.24790226E+00 -2.58523759E-01 -7.09346794E-02 -3.24790226E+00
 -2.58523759E-01 -7.09346794E-02 -3.24790226E+00 -2.58523759E-01 -7.09346794E-02
 -3.24790226E+00 -2.58523759E-01 -7.09346794E-02 -3.24790226E+00 -2.58523759E-01
 -7.09346794E-02 -4.03437113E-02 -4.04693919E+00  4.03751297E-01 -4.03437113E-02
 -4.04693919E+00  4.03751297E-01 -4.03437113E-02 -4.04693919E+00  4.03751297E-01
 -4.03437113E-02 -4.04693919E+00  4.03751297E-01 -4.03437113E-02 -4.04693919E+00
  4.03751297E-01  4.66448477E+00 -3.94531189E+00  5.19723790E-01  4.66448477E+00
 -3.94531189E+00  5.19723790E-01  4.66448477E+00 -3.94531189E+00  5.19723790E-01
  4.66448477E+00 -3.94531189E+00  5.19723790E-01  4.66448477E+00 -3.94531189E+00
  5.19723790E-01  6.91755257E+00  1.43375025E-01  7.20590074E-02  6.91755257E+00
  1.43375025E-01  7.20590074E-02  6.91755257E+00  1.43375025E-01  7.20590074E-02
  6.91755257E+00  1.43375025E-01  7.20590074E-02  6.91755257E+00  1.43375025E-01
  7.20590074E-02  4.47605877E+00  4.10310164E+00 -4.94388291E-01  4.47605877E+00
  4.10310164E+00 -4.94388291E-01  4.47605877E+00  4.10310164E+00 -4.94388291E-01
  4.47605877E+00  4.10310164E+00 -4.94388291E-01  4.47605877E+00  4.10310164E+00
 -4.94388291E-01 -1.71314477E-01  3.99249814E+00 -5.96985302E-01 -1.71314477E-01
  3.99249814E+00 -5.96985302E-01 -1.71314477E-01  3.99249814E+00 -5.96985302E-01
 -1.71314477E-01  3.99249814E+00 -5.96985302E-01 -1.71314477E-01  3.99249814E+00
 -5.96985302E-01 -4.31837365E+00 -2.23213099E+00 -5.93580015E-01 -4.31837365E+00
 -2.23213099E+00 -5.93580015E-01 -4.31837365E+00 -2.23213099E+00 -5.93580015E-01
 -4.31837365E+00 -2.23213099E+00 -5.93580015E-01 -4.31837365E+00 -2.23213099E+00
 -5.93580015E-01 -4.31837365E+00 -2.23213099E+00 -5.93580015E-01 -4.57031547E+00
  1.90513526E+00  4.77070781E-01 -4.57031547E+00  1.90513526E+00  4.77070781E-01
 -4.57031547E+00  1.90513526E+00  4.77070781E-01 -4.57031547E+00  1.90513526E+00
  4.77070781E-01 -4.57031547E+00  1.90513526E+00  4.77070781E-01 -4.57031547E+00
  1.90513526E+00  4.77070781E-01 -6.46125293E+00  1.71941309E+00  6.33233970E-01
 -6.46125293E+00  1.71941309E+00  6.33233970E-01 -6.46125293E+00  1.71941309E+00
  6.33233970E-01 -6.46125293E+00  1.71941309E+00  6.33233970E-01 -6.46125293E+00
  1.71941309E+00  6.33233970E-01 -3.75234176E+00  3.34800537E+00  1.40822577E+00
 -3.75234176E+00  3.34800537E+00  1.40822577E+00 -3.75234176E+00  3.34800537E+00
  1.40822577E+00 -3.75234176E+00  3.34800537E+00  1.40822577E+00 -3.75234176E+00
  3.34800537E+00  1.40822577E+00
Constraint Structure                       R   N=          48
  3.49855058E+00  2.31765821E+00 -2.64446415E-01  8.66965207E-01  2.25202629E+00
 -2.96860887E-01 -4.15076163E-01 -4.68368077E-02 -3.18267971E-02  9.75985124E-01
 -2.27828787E+00  2.40306994E-01  3.60278571E+00 -2.20830202E+00  2.92136513E-01
  4.86975085E+00  9.00924300E-02  4.22126728E-02 -3.24790226E+00 -2.58523759E-01
 -7.09346794E-02 -4.03437113E-02 -4.04693919E+00  4.03751297E-01  4.66448477E+00
 -3.94531189E+00  5.19723790E-01  6.91755257E+00  1.43375025E-01  7.20590074E-02
  4.47605877E+00  4.10310164E+00 -4.94388291E-01 -1.71314477E-01  3.99249814E+00
 -5.96985302E-01 -4.31837365E+00 -2.23213099E+00 -5.93580015E-01 -4.57031547E+00
  1.90513526E+00  4.77070781E-01 -6.46125293E+00  1.71941309E+00  6.33233970E-01
 -3.75234176E+00  3.34800537E+00  1.40822577E+00
Num ILSW                                   I              100
ILSW                                       I   N=         100
           0           0           0           0           2           0
           0           0           0           0           0          -1
           0           0           0           0           0           0
           0           0           0           0           0           0
           1           0           0           0           0           0
           0           0      100000           0          -1           0
           0           0           0           0           0           0
           0           0           0           1           0           0
           0           0           1           0           0           0
           0           0           4          40           0           0
           0           0           0           0           0           0
           0           0           0           0           0           0
           0           0           0           0           0           0
           0           0           0           0           0           0
           0           0           0           0           0           0
           0           0           0           0           0           0
           0           0           0           0
Num RLSW                                   I               40
RLSW                                       R   N=          40
  1.00000000E+00  1.00000000E+00  1.00000000E+00  1.00000000E+00  1.00000000E+00
  0.00000000E+00  0.00000000E+00  1.00000000E+00  0.00000000E+00  0.00000000E+00
  0.00000000E+00  0.00000000E+00  1.00000000E+00  0.00000000E+00  0.00000000E+00
  0.00000000E+00  0.00000000E+00  1.00000000E+00  0.00000000E+00  0.00000000E+00
  0.00000000E+00  0.00000000E+00  1.00000000E+00  0.00000000E+00  0.00000000E+00
  0.00000000E+00  0.00000000E+00  1.00000000E+00  0.00000000E+00  0.00000000E+00
  0.00000000E+00  0.00000000E+00  0.00000000E+00  0.00000000E+00  0.00000000E+00
  0.00000000E+00  0.00000000E+00  0.00000000E+00  1.00000000E+00  1.00000000E+00
MxBond                                     I                3
NBond                                      I   N=          16
           3           3           3           3           3           3
           3           1           1           1           1           1
           1           3           1           1
IBond                                      I   N=          48
           2           6          11           1           3          12
           2           4           7           3           5           8
           4           6           9           1           5          10
           3          13          14           4           0           0
           5           0           0           6           0           0
           1           0           0           2           0           0
           7           0           0           7          15          16
          14           0           0          14           0           0
RBond                                      R   N=          48
  1.50000000E+00  1.50000000E+00  1.00000000E+00  1.50000000E+00  1.50000000E+00
  1.00000000E+00  1.50000000E+00  1.50000000E+00  1.00000000E+00  1.50000000E+00
  1.50000000E+00  1.00000000E+00  1.50000000E+00  1.50000000E+00  1.00000000E+00
  1.50000000E+00  1.50000000E+00  1.00000000E+00  1.00000000E+00  2.00000000E+00
  1.00000000E+00  1.00000000E+00  0.00000000E+00  0.00000000E+00  1.00000000E+00
  0.00000000E+00  0.00000000E+00  1.00000000E+00  0.00000000E+00  0.00000000E+00
  1.00000000E+00  0.00000000E+00  0.00000000E+00  1.00000000E+00  0.00000000E+00
  0.00000000E+00  2.00000000E+00  0.00000000E+00  0.00000000E+00  1.00000000E+00
  1.00000000E+00  1.00000000E+00  1.00000000E+00  0.00000000E+00  0.00000000E+00
  1.00000000E+00  0.00000000E+00  0.00000000E+00
Virial Ratio                               R      2.001318553150000E+00
SCF Energy                                 R     -3.985897966630247E+02
MP2 Energy                                 R     -3.999231271342350E+02
Total Energy                               R     -3.999231271342350E+02
Post-SCF wavefunction norm                 R      1.206702000164492E+00
RMS Density                                R      5.589326048228010E-09
External E-field                           R   N=          35
  0.00000000E+00  0.00000000E+00  0.00000000E+00  0.00000000E+00  0.00000000E+00
  0.00000000E+00  0.00000000E+00  0.00000000E+00  0.00000000E+00  0.00000000E+00
  0.00000000E+00  0.00000000E+00  0.00000000E+00  0.00000000E+00  0.00000000E+00
  0.00000000E+00  0.00000000E+00  0.00000000E+00  0.00000000E+00  0.00000000E+00
  0.00000000E+00  0.00000000E+00  0.00000000E+00  0.00000000E+00  0.00000000E+00
  0.00000000E+00  0.00000000E+00  0.00000000E+00  0.00000000E+00  0.00000000E+00
  0.00000000E+00  0.00000000E+00  0.00000000E+00  0.00000000E+00  0.00000000E+00
IOpCl                                      I                0
IROHF                                      I                0
Alpha Orbital Energies                     R   N=         247
 -2.05242963E+01 -1.55878846E+01 -1.13638967E+01 -1.12598295E+01 -1.12579986E+01
 -1.12550195E+01 -1.12511311E+01 -1.12507028E+01 -1.12480768E+01 -1.38811961E+00
 -1.21553784E+00 -1.16827717E+00 -1.04325701E+00 -1.03162489E+00 -8.82133463E-01
 -8.43487021E-01 -7.93919830E-01 -7.49074261E-01 -6.99980673E-01 -6.75636039E-01
 -6.42870737E-01 -6.23660879E-01 -6.05207956E-01 -5.99369593E-01 -5.77862022E-01
 -5.26487803E-01 -5.09709065E-01 -5.08248378E-01 -4.35934996E-01 -4.18601490E-01
 -3.53143966E-01 -3.48953385E-01  3.29141712E-02  4.22280029E-02  4.97891912E-02
  6.15478804E-02  7.08492404E-02  7.25844725E-02  8.36884663E-02  8.59201695E-02
  1.01356856E-01  1.18184232E-01  1.24521276E-01  1.33247498E-01  1.40525955E-01
  1.49204307E-01  1.61097365E-01  1.64870398E-01  1.73938642E-01  1.74636233E-01
  1.78004710E-01  1.81798389E-01  1.89204299E-01  1.94761524E-01  2.06447194E-01
  2.11479095E-01  2.14869745E-01  2.17415554E-01  2.20102159E-01  2.30257875E-01
  2.34518119E-01  2.36108490E-01  2.46019964E-01  2.51799571E-01  2.66813835E-01
  2.83084165E-01  2.87399247E-01  2.94703858E-01  2.99013775E-01  3.03423132E-01
  3.14412703E-01  3.17772367E-01  3.32354126E-01  3.45733585E-01  3.52364347E-01
  3.66262015E-01  3.84677042E-01  3.89052022E-01  3.99768007E-01  4.03276876E-01
  4.11350018E-01  4.27193046E-01  4.28366063E-01  4.43341142E-01  4.48785707E-01
  4.67839289E-01  4.83905644E-01  4.95921847E-01  5.11831724E-01  5.16262221E-01
  5.55379100E-01  6.11776840E-01  6.21659496E-01  6.61400010E-01  6.89377070E-01
  7.10410239E-01  7.16407928E-01  7.22640361E-01  7.33257004E-01  7.41777872E-01
  7.47328472E-01  7.56402551E-01  7.80405667E-01  8.13276546E-01  8.23793513E-01
  8.30325294E-01  8.40434015E-01  8.63256837E-01  8.67680380E-01  8.85770991E-01
  9.07512187E-01  9.26291511E-01  9.30406841E-01  9.42801317E-01  9.50556356E-01
  9.96695456E-01  1.00420123E+00  1.01156166E+00  1.01724955E+00  1.03346314E+00