 Entering Gaussian System, Link 0=g09
 Initial command:
 /apps/software//g09/l1.exe /scratch/itamar/2462.cluster.abaxnet/Gau-27629.inp -scrdir=/scratch/itamar/2462.cluster.abaxnet/
 Entering Link 1 = /apps/software//g09/l1.exe PID=     27630.
  
 Copyright (c) 1988,1990,1992,1993,1995,1998,2003,2009, Gaussian, Inc.
                  All Rights Reserved.
  
 This is part of the Gaussian(R) 09 program.  It is based on
 the Gaussian(R) 03 system (copyright 2003, Gaussian, Inc.),
 the Gaussian(R) 98 system (copyright 1998, Gaussian, Inc.),
 the Gaussian(R) 94 system (copyright 1995, Gaussian, Inc.),
 the Gaussian 92(TM) system (copyright 1992, Gaussian, Inc.),
 the Gaussian 90(TM) system (copyright 1990, Gaussian, Inc.),
 the Gaussian 88(TM) system (copyright 1988, Gaussian, Inc.),
 the Gaussian 86(TM) system (copyright 1986, Carnegie Mellon
 University), and the Gaussian 82(TM) system (copyright 1983,
 Carnegie Mellon University). Gaussian is a federally registered
 trademark of Gaussian, Inc.
  
 This software contains proprietary and confidential information,
 including trade secrets, belonging to Gaussian, Inc.
  
 This software is provided under written license and may be
 used, copied, transmitted, or stored only in accord with that
 written license.
  
 The following legend is applicable only to US Government
 contracts under FAR:
  
                    RESTRICTED RIGHTS LEGEND
  
 Use, reproduction and disclosure by the US Government is
 subject to restrictions as set forth in subparagraphs (a)
 and (c) of the Commercial Computer Software - Restricted
 Rights clause in FAR 52.227-19.
  
 Gaussian, Inc.
 340 Quinnipiac St., Bldg. 40, Wallingford CT 06492
  
  
 ---------------------------------------------------------------
 Warning -- This program may not be used in any manner that
 competes with the business of Gaussian, Inc. or will provide
 assistance to any competitor of Gaussian, Inc.  The licensee
 of this program is prohibited from giving any competitor of
 Gaussian, Inc. access to this program.  By using this program,
 the user acknowledges that Gaussian, Inc. is engaged in the
 business of creating and licensing software in the field of
 computational chemistry and represents and warrants to the
 licensee that it is not a competitor of Gaussian, Inc. and that
 it will not use this program in any manner prohibited above.
 ---------------------------------------------------------------
  

 Cite this work as:
 Gaussian 09, Revision A.02,
 M. J. Frisch, G. W. Trucks, H. B. Schlegel, G. E. Scuseria, 
 M. A. Robb, J. R. Cheeseman, G. Scalmani, V. Barone, B. Mennucci, 
 G. A. Petersson, H. Nakatsuji, M. Caricato, X. Li, H. P. Hratchian, 
 A. F. Izmaylov, J. Bloino, G. Zheng, J. L. Sonnenberg, M. Hada, 
 M. Ehara, K. Toyota, R. Fukuda, J. Hasegawa, M. Ishida, T. Nakajima, 
 Y. Honda, O. Kitao, H. Nakai, T. Vreven, J. A. Montgomery, Jr., 
 J. E. Peralta, F. Ogliaro, M. Bearpark, J. J. Heyd, E. Brothers, 
 K. N. Kudin, V. N. Staroverov, R. Kobayashi, J. Normand, 
 K. Raghavachari, A. Rendell, J. C. Burant, S. S. Iyengar, J. Tomasi, 
 M. Cossi, N. Rega, J. M. Millam, M. Klene, J. E. Knox, J. B. Cross, 
 V. Bakken, C. Adamo, J. Jaramillo, R. Gomperts, R. E. Stratmann, 
 O. Yazyev, A. J. Austin, R. Cammi, C. Pomelli, J. W. Ochterski, 
 R. L. Martin, K. Morokuma, V. G. Zakrzewski, G. A. Voth, 
 P. Salvador, J. J. Dannenberg, S. Dapprich, A. D. Daniels, 
 O. Farkas, J. B. Foresman, J. V. Ortiz, J. Cioslowski, 
 and D. J. Fox, Gaussian, Inc., Wallingford CT, 2009.
 
 ******************************************
 Gaussian 09:  EM64L-G09RevA.02 11-Jun-2009
                 3-Dec-2021 
 ******************************************
 %Mem=3800MB
 %NProcShared=6
 Will use up to    6 processors via shared memory.
 %chk=/home/itamar/Aromaticity-test-set/T6-Subst-Complex-in-Benzene/CONH2/conh2.c
 hk
 -----------------------------
 #P MP2/6-311++G** DENSITY=MP2
 -----------------------------
 1/30=1,38=1/1;
 2/12=2,17=6,18=5,40=1/2;
 3/5=4,6=6,7=1111,11=9,16=1,25=1,30=1,71=1/1,2,3;
 4//1;
 5/5=2,38=5/2;
 8/6=4,10=2/1;
 9/15=1,16=-3/6;
 10/5=1,13=10/2;
 6/7=2,8=2,9=2,10=2,22=2/1;
 99/5=1,9=1/99;
 Leave Link    1 at Fri Dec  3 14:14:00 2021, MaxMem=  498073600 cpu:       0.2
 (Enter /apps/software//g09/l101.exe)
 -------
 X=CONH2
 -------
 Symbolic Z-matrix:
 Charge =  0 Multiplicity = 1
 6                     1.85135   1.22645  -0.13994 
 6                     0.45878   1.19172  -0.15709 
 6                    -0.21965  -0.02479  -0.01684 
 6                     0.51647  -1.20562   0.12717 
 6                     1.90651  -1.16858   0.15459 
 6                     2.57696   0.04768   0.02234 
 6                    -1.71872  -0.13681  -0.03754 
 1                    -0.02135  -2.14155   0.21366 
 1                     2.46834  -2.08777   0.27503 
 1                     3.66061   0.07587   0.03813 
 1                     2.36863   2.17127  -0.26162 
 1                    -0.09066   2.11274  -0.31591 
 8                    -2.28519  -1.18119  -0.31411 
 7                    -2.41851   1.00815   0.25246 
 1                    -3.41915   0.90987   0.33509 
 1                    -1.98565   1.77169   0.7452 
 
 NAtoms=     16 NQM=     16 NQMF=      0 NMic=      0 NMicF=      0 NTot=     16.
                    Isotopes and Nuclear Properties:
 (Nuclear quadrupole moments (NQMom) in fm**2, nuclear magnetic moments (NMagM)
  in nuclear magnetons)

  Atom         1           2           3           4           5           6           7           8           9          10
 IAtWgt=          12          12          12          12          12          12          12           1           1           1
 AtmWgt=  12.0000000  12.0000000  12.0000000  12.0000000  12.0000000  12.0000000  12.0000000   1.0078250   1.0078250   1.0078250
 NucSpn=           0           0           0           0           0           0           0           1           1           1
 AtZEff=   0.0000000   0.0000000   0.0000000   0.0000000   0.0000000   0.0000000   0.0000000   0.0000000   0.0000000   0.0000000
 NQMom=    0.0000000   0.0000000   0.0000000   0.0000000   0.0000000   0.0000000   0.0000000   0.0000000   0.0000000   0.0000000
 NMagM=    0.0000000   0.0000000   0.0000000   0.0000000   0.0000000   0.0000000   0.0000000   2.7928460   2.7928460   2.7928460

  Atom        11          12          13          14          15          16
 IAtWgt=           1           1          16          14           1           1
 AtmWgt=   1.0078250   1.0078250  15.9949146  14.0030740   1.0078250   1.0078250
 NucSpn=           1           1           0           2           1           1
 AtZEff=   0.0000000   0.0000000   0.0000000   0.0000000   0.0000000   0.0000000
 NQMom=    0.0000000   0.0000000   0.0000000   2.0440000   0.0000000   0.0000000
 NMagM=    2.7928460   2.7928460   0.0000000   0.4037610   2.7928460   2.7928460
 Leave Link  101 at Fri Dec  3 14:14:00 2021, MaxMem=  498073600 cpu:       0.5
 (Enter /apps/software//g09/l202.exe)
                          Input orientation:                          
 ---------------------------------------------------------------------
 Center     Atomic      Atomic             Coordinates (Angstroms)
 Number     Number       Type             X           Y           Z
 ---------------------------------------------------------------------
      1          6           0        1.851353    1.226452   -0.139939
      2          6           0        0.458778    1.191721   -0.157092
      3          6           0       -0.219649   -0.024785   -0.016842
      4          6           0        0.516469   -1.205618    0.127165
      5          6           0        1.906512   -1.168583    0.154592
      6          6           0        2.576961    0.047675    0.022338
      7          6           0       -1.718716   -0.136805   -0.037537
      8          1           0       -0.021349   -2.141548    0.213656
      9          1           0        2.468339   -2.087769    0.275026
     10          1           0        3.660611    0.075871    0.038132
     11          1           0        2.368628    2.171268   -0.261619
     12          1           0       -0.090656    2.112739   -0.315911
     13          8           0       -2.285185   -1.181193   -0.314109
     14          7           0       -2.418507    1.008154    0.252455
     15          1           0       -3.419148    0.909874    0.335093
     16          1           0       -1.985654    1.771688    0.745201
 ---------------------------------------------------------------------
                    Distance matrix (angstroms):
                    1          2          3          4          5
     1  C    0.000000
     2  C    1.393114   0.000000
     3  C    2.422766   1.399936   0.000000
     4  C    2.787153   2.414822   1.398919   0.000000
     5  C    2.413707   2.786416   2.420377   1.390807   0.000000
     6  C    1.393684   2.414070   2.797823   2.413992   1.395090
     7  C    3.822872   2.553577   1.503389   2.483051   3.774090
     8  H    3.869815   3.388017   2.138490   1.082910   2.160277
     9  H    3.396605   3.870415   3.400937   2.147056   1.084000
    10  H    2.151502   3.396317   3.881955   3.396435   2.153855
    11  H    1.084000   2.148945   3.403196   3.871047   3.397262
    12  H    2.141931   1.084147   2.162196   3.402412   3.870029
    13  O    4.789367   3.631075   2.385809   2.836298   4.217839
    14  N    4.293406   2.912077   2.444271   3.678392   4.842887
    15  H    5.301326   3.919183   3.351752   4.472988   5.719722
    16  H    3.975346   2.669409   2.631881   3.937885   4.913550
                    6          7          8          9         10
     6  C    0.000000
     7  C    4.300053   0.000000
     8  H    3.403016   2.638778   0.000000
     9  H    2.153084   4.629836   2.491025   0.000000
    10  H    1.084132   5.384061   4.301696   2.481727   0.000000
    11  H    2.152599   4.699340   4.953611   4.293871   2.479871
    12  H    3.390440   2.790792   4.287680   4.953981   4.283244
    13  O    5.026308   1.219887   2.515109   4.874931   6.087428
    14  N    5.092168   1.372856   3.958345   5.785025   6.153922
    15  H    6.065849   2.031221   4.568475   6.606964   7.134896
    16  H    4.930741   2.079971   4.410720   5.912235   5.937681
                   11         12         13         14         15
    11  H    0.000000
    12  H    2.460579   0.000000
    13  O    5.735828   3.958023   0.000000
    14  N    4.953157   2.638567   2.265394   0.000000
    15  H    5.953615   3.598548   2.465745   1.008846   0.000000
    16  H    4.486995   2.198475   3.151406   1.006551   1.722155
                   16
    16  H    0.000000
 Stoichiometry    C7H7NO
 Framework group  C1[X(C7H7NO)]
 Deg. of freedom    42
 Full point group                 C1      NOp   1
 Largest Abelian subgroup         C1      NOp   1
 Largest concise Abelian subgroup C1      NOp   1
                         Standard orientation:                         
 ---------------------------------------------------------------------
 Center     Atomic      Atomic             Coordinates (Angstroms)
 Number     Number       Type             X           Y           Z
 ---------------------------------------------------------------------
      1          6           0        1.851353    1.226452   -0.139939
      2          6           0        0.458778    1.191721   -0.157092
      3          6           0       -0.219649   -0.024785   -0.016842
      4          6           0        0.516469   -1.205618    0.127165
      5          6           0        1.906512   -1.168583    0.154592
      6          6           0        2.576961    0.047675    0.022338
      7          6           0       -1.718716   -0.136805   -0.037537
      8          1           0       -0.021349   -2.141548    0.213656
      9          1           0        2.468339   -2.087769    0.275026
     10          1           0        3.660611    0.075871    0.038132
     11          1           0        2.368628    2.171268   -0.261619
     12          1           0       -0.090656    2.112739   -0.315911
     13          8           0       -2.285185   -1.181193   -0.314109
     14          7           0       -2.418507    1.008154    0.252455
     15          1           0       -3.419148    0.909874    0.335093
     16          1           0       -1.985654    1.771688    0.745201
 ---------------------------------------------------------------------
 Rotational constants (GHZ):      3.8215419      1.2112980      0.9349087
 Leave Link  202 at Fri Dec  3 14:14:00 2021, MaxMem=  498073600 cpu:       0.1
 (Enter /apps/software//g09/l301.exe)
 Standard basis: 6-311++G(d,p) (5D, 7F)
 Ernie: Thresh=  0.10000D-02 Tol=  0.10000D-05 Strict=F.
 There are   247 symmetry adapted basis functions of A   symmetry.
 Integral buffers will be    131072 words long.
 Raffenetti 1 integral format.
 Two-electron integral symmetry is turned on.
   247 basis functions,   387 primitive gaussians,   256 cartesian basis functions
    32 alpha electrons       32 beta electrons
       nuclear repulsion energy       404.4322563629 Hartrees.
 IExCor=    0 DFT=F Ex=HF Corr=None ExCW=0 ScaHFX=  1.000000
 ScaDFX=  1.000000  1.000000  1.000000  1.000000 ScalE2=  1.000000  1.000000
 IRadAn=      0 IRanWt=     -1 IRanGd=            0 ICorTp=0
 NAtoms=   16 NActive=   16 NUniq=   16 SFac= 7.50D-01 NAtFMM=   80 NAOKFM=F Big=F
 Leave Link  301 at Fri Dec  3 14:14:00 2021, MaxMem=  498073600 cpu:       0.4
 (Enter /apps/software//g09/l302.exe)
 NPDir=0 NMtPBC=     1 NCelOv=     1 NCel=       1 NClECP=     1 NCelD=      1
         NCelK=      1 NCelE2=     1 NClLst=     1 CellRange=     0.0.
 One-electron integrals computed using PRISM.
 NBasis=   247 RedAO= T  NBF=   247
 NBsUse=   247 1.00D-06 NBFU=   247
 Leave Link  302 at Fri Dec  3 14:14:00 2021, MaxMem=  498073600 cpu:       2.8
 (Enter /apps/software//g09/l303.exe)
 DipDrv:  MaxL=1.
 Leave Link  303 at Fri Dec  3 14:14:01 2021, MaxMem=  498073600 cpu:       0.3
 (Enter /apps/software//g09/l401.exe)
 Harris functional with IExCor=  205 diagonalized for initial guess.
 ExpMin= 3.60D-02 ExpMax= 8.59D+03 ExpMxC= 1.30D+03 IAcc=3 IRadAn=         0 AccDes= 0.00D+00
 HarFok:  IExCor=  205 AccDes= 0.00D+00 IRadAn=         0 IDoV= 1
 ScaDFX=  1.000000  1.000000  1.000000  1.000000
 FoFCou: FMM=F IPFlag=           0 FMFlag=      100000 FMFlg1=           0
         NFxFlg=           0 DoJE=T BraDBF=F KetDBF=T FulRan=T
         Omega=  0.000000  0.000000  1.000000  0.000000  0.000000 ICntrl=     500 IOpCl=  0
         NMat0=    1 NMatS0=    1 NMatT0=    0 NMatD0=    1 NMtDS0=    0 NMtDT0=    0
         I1Cent=           4 NGrid=           0.
 Petite list used in FoFCou.
 Harris En= -399.103031616093    
 Initial guess orbital symmetries:
       Occupied  (A) (A) (A) (A) (A) (A) (A) (A) (A) (A) (A) (A)
                 (A) (A) (A) (A) (A) (A) (A) (A) (A) (A) (A) (A)
                 (A) (A) (A) (A) (A) (A) (A) (A)
       Virtual   (A) (A) (A) (A) (A) (A) (A) (A) (A) (A) (A) (A)
                 (A) (A) (A) (A) (A) (A) (A) (A) (A) (A) (A) (A)
                 (A) (A) (A) (A) (A) (A) (A) (A) (A) (A) (A) (A)
                 (A) (A) (A) (A) (A) (A) (A) (A) (A) (A) (A) (A)
                 (A) (A) (A) (A) (A) (A) (A) (A) (A) (A) (A) (A)
                 (A) (A) (A) (A) (A) (A) (A) (A) (A) (A) (A) (A)
                 (A) (A) (A) (A) (A) (A) (A) (A) (A) (A) (A) (A)
                 (A) (A) (A) (A) (A) (A) (A) (A) (A) (A) (A) (A)
                 (A) (A) (A) (A) (A) (A) (A) (A) (A) (A) (A) (A)
                 (A) (A) (A) (A) (A) (A) (A) (A) (A) (A) (A) (A)
                 (A) (A) (A) (A) (A) (A) (A) (A) (A) (A) (A) (A)
                 (A) (A) (A) (A) (A) (A) (A) (A) (A) (A) (A) (A)
                 (A) (A) (A) (A) (A) (A) (A) (A) (A) (A) (A) (A)
                 (A) (A) (A) (A) (A) (A) (A) (A) (A) (A) (A) (A)
                 (A) (A) (A) (A) (A) (A) (A) (A) (A) (A) (A) (A)
                 (A) (A) (A) (A) (A) (A) (A) (A) (A) (A) (A) (A)
                 (A) (A) (A) (A) (A) (A) (A) (A) (A) (A) (A) (A)
                 (A) (A) (A) (A) (A) (A) (A) (A) (A) (A) (A)
 The electronic state of the initial guess is 1-A.
 Leave Link  401 at Fri Dec  3 14:14:02 2021, MaxMem=  498073600 cpu:       6.5
 (Enter /apps/software//g09/l502.exe)
 Closed shell SCF:
 Requested convergence on RMS density matrix=1.00D-08 within 128 cycles.
 Requested convergence on MAX density matrix=1.00D-06.
 Requested convergence on             energy=1.00D-06.
 No special actions if energy rises.
 Using DIIS extrapolation, IDIIS=  1040.
 Integral symmetry usage will be decided dynamically.
 IEnd=      218194 IEndB=      218194 NGot=   498073600 MDV=   497937839
 LenX=   497937839 LenY=   497871862
 Fock matrices will be formed incrementally for  20 cycles.

 Cycle   1  Pass 0  IDiag  1:
 FoFCou: FMM=F IPFlag=           0 FMFlag=      100000 FMFlg1=           0
         NFxFlg=           0 DoJE=F BraDBF=F KetDBF=F FulRan=T
         Omega=  0.000000  0.000000  1.000000  0.000000  0.000000 ICntrl=       0 IOpCl=  0
         NMat0=    1 NMatS0=    1 NMatT0=    0 NMatD0=    1 NMtDS0=    0 NMtDT0=    0
         I1Cent=           0 NGrid=           0.
 Symmetry not used in FoFCou.
 E= -398.184206761919    
 DIIS: error= 3.89D-02 at cycle   1 NSaved=   1.
 NSaved= 1 IEnMin= 1 EnMin= -398.184206761919     IErMin= 1 ErrMin= 3.89D-02
 ErrMax= 3.89D-02 EMaxC= 1.00D-01 BMatC= 8.36D-01 BMatP= 8.36D-01
 IDIUse=3 WtCom= 6.11D-01 WtEn= 3.89D-01
 Coeff-Com:  0.100D+01
 Coeff-En:   0.100D+01
 Coeff:      0.100D+01
 Gap=     0.462 Goal=   None    Shift=    0.000
 GapD=    0.462 DampG=2.000 DampE=0.500 DampFc=1.0000 IDamp=-1.
 RMSDP=2.12D-02 MaxDP=1.28D+00              OVMax= 1.47D-01

 Cycle   2  Pass 0  IDiag  1:
 RMSU=  1.45D-02    CP:  9.10D-01
 E= -398.518922730332     Delta-E=       -0.334715968413 Rises=F Damp=F
 DIIS: error= 1.88D-02 at cycle   2 NSaved=   2.
 NSaved= 2 IEnMin= 2 EnMin= -398.518922730332     IErMin= 2 ErrMin= 1.88D-02
 ErrMax= 1.88D-02 EMaxC= 1.00D-01 BMatC= 8.94D-02 BMatP= 8.36D-01
 IDIUse=3 WtCom= 8.12D-01 WtEn= 1.88D-01
 Coeff-Com:  0.172D+00 0.828D+00
 Coeff-En:   0.000D+00 0.100D+01
 Coeff:      0.140D+00 0.860D+00
 Gap=     0.412 Goal=   None    Shift=    0.000
 RMSDP=1.25D-02 MaxDP=8.27D-01 DE=-3.35D-01 OVMax= 6.15D-02

 Cycle   3  Pass 0  IDiag  1:
 RMSU=  3.81D-03    CP:  8.52D-01  4.77D-01
 E= -398.579216649971     Delta-E=       -0.060293919639 Rises=F Damp=F
 DIIS: error= 8.81D-03 at cycle   3 NSaved=   3.
 NSaved= 3 IEnMin= 3 EnMin= -398.579216649971     IErMin= 3 ErrMin= 8.81D-03
 ErrMax= 8.81D-03 EMaxC= 1.00D-01 BMatC= 1.45D-02 BMatP= 8.94D-02
 IDIUse=3 WtCom= 9.12D-01 WtEn= 8.81D-02
 Coeff-Com: -0.160D-01 0.262D+00 0.754D+00
 Coeff-En:   0.000D+00 0.000D+00 0.100D+01
 Coeff:     -0.146D-01 0.239D+00 0.776D+00
 Gap=     0.388 Goal=   None    Shift=    0.000
 RMSDP=3.76D-03 MaxDP=2.72D-01 DE=-6.03D-02 OVMax= 2.47D-02

 Cycle   4  Pass 0  IDiag  1:
 RMSU=  1.32D-03    CP:  8.39D-01  6.31D-01  9.67D-01
 E= -398.589046870419     Delta-E=       -0.009830220448 Rises=F Damp=F
 DIIS: error= 1.96D-03 at cycle   4 NSaved=   4.
 NSaved= 4 IEnMin= 4 EnMin= -398.589046870419     IErMin= 4 ErrMin= 1.96D-03
 ErrMax= 1.96D-03 EMaxC= 1.00D-01 BMatC= 8.11D-04 BMatP= 1.45D-02
 IDIUse=3 WtCom= 9.80D-01 WtEn= 1.96D-02
 Coeff-Com: -0.991D-02 0.597D-01 0.276D+00 0.675D+00
 Coeff-En:   0.000D+00 0.000D+00 0.000D+00 0.100D+01
 Coeff:     -0.972D-02 0.585D-01 0.270D+00 0.681D+00
 Gap=     0.381 Goal=   None    Shift=    0.000
 RMSDP=8.73D-04 MaxDP=5.28D-02 DE=-9.83D-03 OVMax= 6.48D-03

 Cycle   5  Pass 0  IDiag  1:
 RMSU=  5.39D-04    CP:  8.35D-01  6.29D-01  1.00D+00  8.38D-01
 E= -398.589715605221     Delta-E=       -0.000668734801 Rises=F Damp=F
 DIIS: error= 6.81D-04 at cycle   5 NSaved=   5.
 NSaved= 5 IEnMin= 5 EnMin= -398.589715605221     IErMin= 5 ErrMin= 6.81D-04
 ErrMax= 6.81D-04 EMaxC= 1.00D-01 BMatC= 3.57D-05 BMatP= 8.11D-04
 IDIUse=3 WtCom= 9.93D-01 WtEn= 6.81D-03
 Coeff-Com:  0.862D-03-0.199D-01-0.604D-01 0.504D-01 0.103D+01
 Coeff-En:   0.000D+00 0.000D+00 0.000D+00 0.000D+00 0.100D+01
 Coeff:      0.857D-03-0.198D-01-0.600D-01 0.501D-01 0.103D+01
 Gap=     0.382 Goal=   None    Shift=    0.000
 RMSDP=2.60D-04 MaxDP=1.51D-02 DE=-6.69D-04 OVMax= 4.04D-03

 Cycle   6  Pass 0  IDiag  1:
 RMSU=  1.29D-04    CP:  8.35D-01  6.31D-01  1.03D+00  8.76D-01  1.13D+00
 E= -398.589783786355     Delta-E=       -0.000068181134 Rises=F Damp=F
 DIIS: error= 1.37D-04 at cycle   6 NSaved=   6.
 NSaved= 6 IEnMin= 6 EnMin= -398.589783786355     IErMin= 6 ErrMin= 1.37D-04
 ErrMax= 1.37D-04 EMaxC= 1.00D-01 BMatC= 4.07D-06 BMatP= 3.57D-05
 IDIUse=3 WtCom= 9.99D-01 WtEn= 1.37D-03
 Coeff-Com:  0.881D-03-0.697D-02-0.281D-01-0.687D-01 0.588D-01 0.104D+01
 Coeff-En:   0.000D+00 0.000D+00 0.000D+00 0.000D+00 0.000D+00 0.100D+01
 Coeff:      0.880D-03-0.696D-02-0.281D-01-0.686D-01 0.587D-01 0.104D+01
 Gap=     0.382 Goal=   None    Shift=    0.000
 RMSDP=1.19D-04 MaxDP=6.51D-03 DE=-6.82D-05 OVMax= 1.47D-03

 Cycle   7  Pass 0  IDiag  1:
 RMSU=  2.28D-05    CP:  8.35D-01  6.31D-01  1.04D+00  8.89D-01  1.24D+00
                    CP:  1.26D+00
 E= -398.589794216503     Delta-E=       -0.000010430148 Rises=F Damp=F
 DIIS: error= 7.65D-05 at cycle   7 NSaved=   7.
 NSaved= 7 IEnMin= 7 EnMin= -398.589794216503     IErMin= 7 ErrMin= 7.65D-05
 ErrMax= 7.65D-05 EMaxC= 1.00D-01 BMatC= 5.94D-07 BMatP= 4.07D-06
 IDIUse=1 WtCom= 1.00D+00 WtEn= 0.00D+00
 Coeff-Com: -0.255D-04 0.178D-02 0.588D-02-0.138D-01-0.942D-01 0.203D-01
 Coeff-Com:  0.108D+01
 Coeff:     -0.255D-04 0.178D-02 0.588D-02-0.138D-01-0.942D-01 0.203D-01
 Coeff:      0.108D+01
 Gap=     0.382 Goal=   None    Shift=    0.000
 RMSDP=4.38D-05 MaxDP=2.43D-03 DE=-1.04D-05 OVMax= 7.87D-04

 Cycle   8  Pass 0  IDiag  1:
 RMSU=  1.31D-05    CP:  8.35D-01  6.31D-01  1.04D+00  8.86D-01  1.28D+00
                    CP:  1.38D+00  1.26D+00
 E= -398.589796148391     Delta-E=       -0.000001931888 Rises=F Damp=F
 DIIS: error= 4.14D-05 at cycle   8 NSaved=   8.
 NSaved= 8 IEnMin= 8 EnMin= -398.589796148391     IErMin= 8 ErrMin= 4.14D-05
 ErrMax= 4.14D-05 EMaxC= 1.00D-01 BMatC= 1.11D-07 BMatP= 5.94D-07
 IDIUse=1 WtCom= 1.00D+00 WtEn= 0.00D+00
 Coeff-Com: -0.160D-03 0.126D-02 0.508D-02 0.101D-01 0.221D-02-0.197D+00
 Coeff-Com: -0.113D+00 0.129D+01
 Coeff:     -0.160D-03 0.126D-02 0.508D-02 0.101D-01 0.221D-02-0.197D+00
 Coeff:     -0.113D+00 0.129D+01
 Gap=     0.382 Goal=   None    Shift=    0.000
 RMSDP=2.04D-05 MaxDP=9.68D-04 DE=-1.93D-06 OVMax= 3.86D-04

 Cycle   9  Pass 0  IDiag  1:
 RMSU=  7.29D-06    CP:  8.35D-01  6.31D-01  1.04D+00  8.85D-01  1.29D+00
                    CP:  1.42D+00  1.50D+00  1.49D+00
 E= -398.589796601937     Delta-E=       -0.000000453546 Rises=F Damp=F
 DIIS: error= 1.21D-05 at cycle   9 NSaved=   9.
 NSaved= 9 IEnMin= 9 EnMin= -398.589796601937     IErMin= 9 ErrMin= 1.21D-05
 ErrMax= 1.21D-05 EMaxC= 1.00D-01 BMatC= 1.37D-08 BMatP= 1.11D-07
 IDIUse=1 WtCom= 1.00D+00 WtEn= 0.00D+00
 Coeff-Com: -0.146D-04-0.489D-04-0.899D-04 0.168D-02 0.106D-01-0.164D-01
 Coeff-Com: -0.137D+00 0.144D+00 0.997D+00
 Coeff:     -0.146D-04-0.489D-04-0.899D-04 0.168D-02 0.106D-01-0.164D-01
 Coeff:     -0.137D+00 0.144D+00 0.997D+00
 Gap=     0.382 Goal=   None    Shift=    0.000
 RMSDP=5.41D-06 MaxDP=3.47D-04 DE=-4.54D-07 OVMax= 1.23D-04

 Initial convergence to 1.0D-05 achieved.  Increase integral accuracy.
 Cycle  10  Pass 1  IDiag  1:
 E= -398.589796647886     Delta-E=       -0.000000045948 Rises=F Damp=F
 DIIS: error= 8.62D-06 at cycle   1 NSaved=   1.
 NSaved= 1 IEnMin= 1 EnMin= -398.589796647886     IErMin= 1 ErrMin= 8.62D-06
 ErrMax= 8.62D-06 EMaxC= 1.00D-01 BMatC= 2.85D-09 BMatP= 2.85D-09
 IDIUse=1 WtCom= 1.00D+00 WtEn= 0.00D+00
 Coeff-Com:  0.100D+01
 Coeff:      0.100D+01
 Gap=     0.382 Goal=   None    Shift=    0.000
 RMSDP=5.41D-06 MaxDP=3.47D-04 DE=-4.59D-08 OVMax= 5.08D-05

 Cycle  11  Pass 1  IDiag  1:
 RMSU=  1.66D-06    CP:  1.00D+00
 E= -398.589796656638     Delta-E=       -0.000000008752 Rises=F Damp=F
 DIIS: error= 4.36D-06 at cycle   2 NSaved=   2.
 NSaved= 2 IEnMin= 2 EnMin= -398.589796656638     IErMin= 2 ErrMin= 4.36D-06
 ErrMax= 4.36D-06 EMaxC= 1.00D-01 BMatC= 1.11D-09 BMatP= 2.85D-09
 IDIUse=1 WtCom= 1.00D+00 WtEn= 0.00D+00
 Coeff-Com:  0.108D+00 0.892D+00
 Coeff:      0.108D+00 0.892D+00
 Gap=     0.382 Goal=   None    Shift=    0.000
 RMSDP=1.11D-06 MaxDP=7.60D-05 DE=-8.75D-09 OVMax= 3.11D-05

 Cycle  12  Pass 1  IDiag  1:
 RMSU=  5.29D-07    CP:  1.00D+00  1.34D+00
 E= -398.589796660003     Delta-E=       -0.000000003365 Rises=F Damp=F
 DIIS: error= 3.93D-06 at cycle   3 NSaved=   3.
 NSaved= 3 IEnMin= 3 EnMin= -398.589796660003     IErMin= 3 ErrMin= 3.93D-06
 ErrMax= 3.93D-06 EMaxC= 1.00D-01 BMatC= 4.74D-10 BMatP= 1.11D-09
 IDIUse=1 WtCom= 1.00D+00 WtEn= 0.00D+00
 Coeff-Com: -0.580D+00-0.309D-01 0.161D+01
 Coeff:     -0.580D+00-0.309D-01 0.161D+01
 Gap=     0.382 Goal=   None    Shift=    0.000
 RMSDP=1.77D-06 MaxDP=1.45D-04 DE=-3.37D-09 OVMax= 4.75D-05

 Cycle  13  Pass 1  IDiag  1:
 RMSU=  2.49D-07    CP:  1.00D+00  1.99D+00  1.48D+00
 E= -398.589796662847     Delta-E=       -0.000000002844 Rises=F Damp=F
 DIIS: error= 8.05D-07 at cycle   4 NSaved=   4.
 NSaved= 4 IEnMin= 4 EnMin= -398.589796662847     IErMin= 4 ErrMin= 8.05D-07
 ErrMax= 8.05D-07 EMaxC= 1.00D-01 BMatC= 3.55D-11 BMatP= 4.74D-10
 IDIUse=1 WtCom= 1.00D+00 WtEn= 0.00D+00
 Coeff-Com: -0.111D+00-0.778D-01 0.282D+00 0.907D+00
 Coeff:     -0.111D+00-0.778D-01 0.282D+00 0.907D+00
 Gap=     0.382 Goal=   None    Shift=    0.000
 RMSDP=2.55D-07 MaxDP=1.39D-05 DE=-2.84D-09 OVMax= 7.75D-06

 Cycle  14  Pass 1  IDiag  1:
 RMSU=  1.21D-07    CP:  1.00D+00  2.03D+00  1.53D+00  1.29D+00
 E= -398.589796662975     Delta-E=       -0.000000000129 Rises=F Damp=F
 DIIS: error= 3.21D-07 at cycle   5 NSaved=   5.
 NSaved= 5 IEnMin= 5 EnMin= -398.589796662975     IErMin= 5 ErrMin= 3.21D-07
 ErrMax= 3.21D-07 EMaxC= 1.00D-01 BMatC= 8.06D-12 BMatP= 3.55D-11
 IDIUse=1 WtCom= 1.00D+00 WtEn= 0.00D+00
 Coeff-Com:  0.179D+00 0.706D-02-0.489D+00-0.168D-01 0.132D+01
 Coeff:      0.179D+00 0.706D-02-0.489D+00-0.168D-01 0.132D+01
 Gap=     0.382 Goal=   None    Shift=    0.000
 RMSDP=2.15D-07 MaxDP=1.60D-05 DE=-1.29D-10 OVMax= 4.68D-06

 Cycle  15  Pass 1  IDiag  1:
 RMSU=  4.52D-08    CP:  1.00D+00  1.99D+00  1.47D+00  1.67D+00  1.45D+00
 E= -398.589796663011     Delta-E=       -0.000000000036 Rises=F Damp=F
 DIIS: error= 1.13D-07 at cycle   6 NSaved=   6.
 NSaved= 6 IEnMin= 6 EnMin= -398.589796663011     IErMin= 6 ErrMin= 1.13D-07
 ErrMax= 1.13D-07 EMaxC= 1.00D-01 BMatC= 1.15D-12 BMatP= 8.06D-12
 IDIUse=1 WtCom= 1.00D+00 WtEn= 0.00D+00
 Coeff-Com:  0.800D-01 0.115D-01-0.213D+00-0.106D+00 0.487D+00 0.741D+00
 Coeff:      0.800D-01 0.115D-01-0.213D+00-0.106D+00 0.487D+00 0.741D+00
 Gap=     0.382 Goal=   None    Shift=    0.000
 RMSDP=3.12D-08 MaxDP=2.44D-06 DE=-3.59D-11 OVMax= 7.33D-07

 Cycle  16  Pass 1  IDiag  1:
 RMSU=  1.29D-08    CP:  1.00D+00  1.99D+00  1.47D+00  1.72D+00  1.51D+00
                    CP:  9.94D-01
 E= -398.589796663033     Delta-E=       -0.000000000022 Rises=F Damp=F
 DIIS: error= 1.62D-08 at cycle   7 NSaved=   7.
 NSaved= 7 IEnMin= 7 EnMin= -398.589796663033     IErMin= 7 ErrMin= 1.62D-08
 ErrMax= 1.62D-08 EMaxC= 1.00D-01 BMatC= 5.50D-14 BMatP= 1.15D-12
 IDIUse=1 WtCom= 1.00D+00 WtEn= 0.00D+00
 Coeff-Com: -0.220D-01-0.223D-02 0.607D-01 0.273D-02-0.154D+00-0.751D-01
 Coeff-Com:  0.119D+01
 Coeff:     -0.220D-01-0.223D-02 0.607D-01 0.273D-02-0.154D+00-0.751D-01
 Coeff:      0.119D+01
 Gap=     0.382 Goal=   None    Shift=    0.000
 RMSDP=1.42D-08 MaxDP=7.86D-07 DE=-2.17D-11 OVMax= 2.53D-07

 Cycle  17  Pass 1  IDiag  1:
 RMSU=  6.00D-09    CP:  1.00D+00  1.99D+00  1.47D+00  1.74D+00  1.53D+00
                    CP:  1.04D+00  1.38D+00
 E= -398.589796663025     Delta-E=        0.000000000008 Rises=F Damp=F
 DIIS: error= 6.79D-09 at cycle   8 NSaved=   8.
 NSaved= 8 IEnMin= 7 EnMin= -398.589796663033     IErMin= 8 ErrMin= 6.79D-09
 ErrMax= 6.79D-09 EMaxC= 1.00D-01 BMatC= 9.19D-15 BMatP= 5.50D-14
 IDIUse=1 WtCom= 1.00D+00 WtEn= 0.00D+00
 Coeff-Com: -0.882D-02-0.109D-02 0.241D-01 0.890D-02-0.520D-01-0.933D-01
 Coeff-Com:  0.127D+00 0.996D+00
 Coeff:     -0.882D-02-0.109D-02 0.241D-01 0.890D-02-0.520D-01-0.933D-01
 Coeff:      0.127D+00 0.996D+00
 Gap=     0.382 Goal=   None    Shift=    0.000
 RMSDP=5.59D-09 MaxDP=3.99D-07 DE= 8.19D-12 OVMax= 6.53D-08

 SCF Done:  E(RHF) =  -398.589796663     A.U. after   17 cycles
             Convg  =    0.5589D-08             -V/T =  2.0013
 KE= 3.980649268998D+02 PE=-1.740829165162D+03 EE= 5.397421852365D+02
 Leave Link  502 at Fri Dec  3 14:15:12 2021, MaxMem=  498073600 cpu:     419.2
 (Enter /apps/software//g09/l801.exe)
 ExpMin= 3.60D-02 ExpMax= 8.59D+03 ExpMxC= 1.30D+03 IAcc=3 IRadAn=         5 AccDes= 0.00D+00
 HarFok:  IExCor=  205 AccDes= 0.00D+00 IRadAn=         5 IDoV=-2
 ScaDFX=  1.000000  1.000000  1.000000  1.000000
 Largest valence mixing into a core orbital is  1.40D-04
 Largest core mixing into a valence orbital is  4.05D-05
 Range of M.O.s used for correlation:    10   247
 NBasis=   247 NAE=    32 NBE=    32 NFC=     9 NFV=     0
 NROrb=    238 NOA=    23 NOB=    23 NVA=   215 NVB=   215

 **** Warning!!: The largest alpha MO coefficient is  0.26835089D+03

 Leave Link  801 at Fri Dec  3 14:15:12 2021, MaxMem=  498073600 cpu:       1.5
 (Enter /apps/software//g09/l906.exe)
 Frozen-core derivative calculation, NFC=   9 NFV=   0.
 FulOut=F Deriv=T AODrv=F NAtomX=    16
   MMem=          60  MDisk=          23 MDiskD=          23
  W3Min=     2023424 MinDsk=     2712528 NBas6D=         256
 NBas2D=       33268    NTT=       32896    LW2=     2040000
    MDV=   497391388 MDiskM=       26876 NBas2p=       31467
 Fully direct method using O(ONN) memory.
 IMap=   1   2   3   4   5   6   7   8   9  10  11  12  13  14  15  16  17  18  19  20
 IMap=  21  22  23  24  25  26  27  28  29  30  31  32
 JobTyp=1 Pass  1:  I=  10 to  18 NPSUse=  6 ParTrn=T ParDer=T DoDerP=T.
 JobTyp=1 Pass  2:  I=  19 to  27 NPSUse=  6 ParTrn=T ParDer=T DoDerP=T.
 JobTyp=1 Pass  3:  I=  28 to  32 NPSUse=  6 ParTrn=T ParDer=T DoDerP=T.
 Spin components of T(2) and E(2):
     alpha-alpha T2 =       0.6368752984D-01 E2=     -0.1784128781D+00
     alpha-beta  T2 =       0.3287546575D+00 E2=     -0.9765047150D+00
     beta-beta   T2 =       0.6368752984D-01 E2=     -0.1784128781D+00
 The integrals were generated   3 times.
 ANorm=    0.1206702000D+01
 E2 =    -0.1333330471D+01 EUMP2 =    -0.39992312713423D+03
 Leave Link  906 at Fri Dec  3 14:16:22 2021, MaxMem=  498073600 cpu:     419.7
 (Enter /apps/software//g09/l1002.exe)
 Minotr:  Closed shell wavefunction.
          Computing MP2/KS-MP2 derivatives.
          Using Z-Vector for PSCF gradient.
          Skipping F1 and S1 gradient terms here.
          Frozen-core window.
          Direct CPHF calculation.
          Differentiating once with respect to electric field.
                with respect to dipole field.
          Electric field/nuclear overlap derivatives assumed to be zero.
          Requested convergence is 1.0D-10 RMS, and 1.0D-09 maximum.
          NewPWx=F KeepS1=T KeepF1=T KeepIn=T MapXYZ=F SortEE=F KeepMc=T.
          MDV=     498073468 using IRadAn=       0.
          Solving linear equations separately, MaxMat=       0.
          There are     1 degrees of freedom in the 1st order CPHF.  IDoFFX=0.
 Petite list used in FoFDir.
 MinBra= 0 MaxBra= 2 Meth= 1.
 IRaf=       0 NMat=   1 IRICut=       1 DoRegI=T DoRafI=F ISym2E= 1 JSym2E=1.
 LinEq1:  Iter=  0 NonCon=     1 RMS=3.73D-03 Max=5.78D-02
 AX will form     1 AO Fock derivatives at one time.
 LinEq1:  Iter=  1 NonCon=     1 RMS=1.04D-03 Max=1.32D-02
 LinEq1:  Iter=  2 NonCon=     1 RMS=4.31D-04 Max=9.08D-03
 LinEq1:  Iter=  3 NonCon=     1 RMS=2.11D-04 Max=3.97D-03
 LinEq1:  Iter=  4 NonCon=     1 RMS=7.69D-05 Max=1.78D-03
 LinEq1:  Iter=  5 NonCon=     1 RMS=2.51D-05 Max=5.39D-04
 LinEq1:  Iter=  6 NonCon=     1 RMS=1.02D-05 Max=2.94D-04
 LinEq1:  Iter=  7 NonCon=     1 RMS=3.27D-06 Max=4.19D-05
 LinEq1:  Iter=  8 NonCon=     1 RMS=9.67D-07 Max=1.64D-05
 LinEq1:  Iter=  9 NonCon=     1 RMS=3.58D-07 Max=3.93D-06
 LinEq1:  Iter= 10 NonCon=     1 RMS=9.66D-08 Max=1.47D-06
 LinEq1:  Iter= 11 NonCon=     1 RMS=3.23D-08 Max=5.77D-07
 LinEq1:  Iter= 12 NonCon=     1 RMS=1.28D-08 Max=1.97D-07
 LinEq1:  Iter= 13 NonCon=     1 RMS=4.45D-09 Max=1.04D-07
 LinEq1:  Iter= 14 NonCon=     1 RMS=1.75D-09 Max=2.56D-08
 LinEq1:  Iter= 15 NonCon=     1 RMS=5.65D-10 Max=9.08D-09
 LinEq1:  Iter= 16 NonCon=     1 RMS=1.63D-10 Max=2.41D-09
 LinEq1:  Iter= 17 NonCon=     0 RMS=5.67D-11 Max=6.74D-10
 Linear equations converged to 1.000D-10 1.000D-09 after    17 iterations.
 End of Minotr Frequency-dependent properties file   721 does not exist.
 End of Minotr Frequency-dependent properties file   722 does not exist.
 Leave Link 1002 at Fri Dec  3 14:17:40 2021, MaxMem=  498073600 cpu:     471.5
 (Enter /apps/software//g09/l601.exe)
 Copying SCF densities to generalized density rwf, IOpCl= 0 IROHF=0.

 **********************************************************************

            Population analysis using the MP2 density.

 **********************************************************************

 Orbital symmetries:
       Occupied  (A) (A) (A) (A) (A) (A) (A) (A) (A) (A) (A) (A)
                 (A) (A) (A) (A) (A) (A) (A) (A) (A) (A) (A) (A)
                 (A) (A) (A) (A) (A) (A) (A) (A)
       Virtual   (A) (A) (A) (A) (A) (A) (A) (A) (A) (A) (A) (A)
                 (A) (A) (A) (A) (A) (A) (A) (A) (A) (A) (A) (A)
                 (A) (A) (A) (A) (A) (A) (A) (A) (A) (A) (A) (A)
                 (A) (A) (A) (A) (A) (A) (A) (A) (A) (A) (A) (A)
                 (A) (A) (A) (A) (A) (A) (A) (A) (A) (A) (A) (A)
                 (A) (A) (A) (A) (A) (A) (A) (A) (A) (A) (A) (A)
                 (A) (A) (A) (A) (A) (A) (A) (A) (A) (A) (A) (A)
                 (A) (A) (A) (A) (A) (A) (A) (A) (A) (A) (A) (A)
                 (A) (A) (A) (A) (A) (A) (A) (A) (A) (A) (A) (A)
                 (A) (A) (A) (A) (A) (A) (A) (A) (A) (A) (A) (A)
                 (A) (A) (A) (A) (A) (A) (A) (A) (A) (A) (A) (A)
                 (A) (A) (A) (A) (A) (A) (A) (A) (A) (A) (A) (A)
                 (A) (A) (A) (A) (A) (A) (A) (A) (A) (A) (A) (A)
                 (A) (A) (A) (A) (A) (A) (A) (A) (A) (A) (A) (A)
                 (A) (A) (A) (A) (A) (A) (A) (A) (A) (A) (A) (A)
                 (A) (A) (A) (A) (A) (A) (A) (A) (A) (A) (A) (A)
                 (A) (A) (A) (A) (A) (A) (A) (A) (A) (A) (A) (A)
                 (A) (A) (A) (A) (A) (A) (A) (A) (A) (A) (A)
 The electronic state is 1-A.
 Alpha  occ. eigenvalues --  -20.52430 -15.58788 -11.36390 -11.25983 -11.25800
 Alpha  occ. eigenvalues --  -11.25502 -11.25113 -11.25070 -11.24808  -1.38812
 Alpha  occ. eigenvalues --   -1.21554  -1.16828  -1.04326  -1.03162  -0.88213
 Alpha  occ. eigenvalues --   -0.84349  -0.79392  -0.74907  -0.69998  -0.67564
 Alpha  occ. eigenvalues --   -0.64287  -0.62366  -0.60521  -0.59937  -0.57786
 Alpha  occ. eigenvalues --   -0.52649  -0.50971  -0.50825  -0.43593  -0.41860
 Alpha  occ. eigenvalues --   -0.35314  -0.34895
 Alpha virt. eigenvalues --    0.03291   0.04223   0.04979   0.06155   0.07085
 Alpha virt. eigenvalues --    0.07258   0.08369   0.08592   0.10136   0.11818
 Alpha virt. eigenvalues --    0.12452   0.13325   0.14053   0.14920   0.16110
 Alpha virt. eigenvalues --    0.16487   0.17394   0.17464   0.17800   0.18180
 Alpha virt. eigenvalues --    0.18920   0.19476   0.20645   0.21148   0.21487
 Alpha virt. eigenvalues --    0.21742   0.22010   0.23026   0.23452   0.23611
 Alpha virt. eigenvalues --    0.24602   0.25180   0.26681   0.28308   0.28740
 Alpha virt. eigenvalues --    0.29470   0.29901   0.30342   0.31441   0.31777
 Alpha virt. eigenvalues --    0.33235   0.34573   0.35236   0.36626   0.38468
 Alpha virt. eigenvalues --    0.38905   0.39977   0.40328   0.41135   0.42719
 Alpha virt. eigenvalues --    0.42837   0.44334   0.44879   0.46784   0.48391
 Alpha virt. eigenvalues --    0.49592   0.51183   0.51626   0.55538   0.61178
 Alpha virt. eigenvalues --    0.62166   0.66140   0.68938   0.71041   0.71641
 Alpha virt. eigenvalues --    0.72264   0.73326   0.74178   0.74733   0.75640
 Alpha virt. eigenvalues --    0.78041   0.81328   0.82379   0.83033   0.84043
 Alpha virt. eigenvalues --    0.86326   0.86768   0.88577   0.90751   0.92629
 Alpha virt. eigenvalues --    0.93041   0.94280   0.95056   0.99670   1.00420
 Alpha virt. eigenvalues --    1.01156   1.01725   1.03346   1.04973   1.05954
 Alpha virt. eigenvalues --    1.06934   1.07125   1.11078   1.11552   1.12187
 Alpha virt. eigenvalues --    1.13471   1.15794   1.17833   1.22082   1.23867
 Alpha virt. eigenvalues --    1.24922   1.26177   1.31633   1.35524   1.36764
 Alpha virt. eigenvalues --    1.40515   1.42332   1.43380   1.48382   1.49476
 Alpha virt. eigenvalues --    1.52436   1.53400   1.56987   1.64217   1.71446
 Alpha virt. eigenvalues --    1.76587   1.77146   1.78831   1.79229   1.80839
 Alpha virt. eigenvalues --    1.82564   1.83426   1.89171   1.90522   1.91403
 Alpha virt. eigenvalues --    1.95068   1.96025   1.98756   2.02225   2.03740
 Alpha virt. eigenvalues --    2.04635   2.05312   2.09570   2.11709   2.16721
 Alpha virt. eigenvalues --    2.17331   2.22479   2.22552   2.23977   2.24080
 Alpha virt. eigenvalues --    2.24912   2.27356   2.32579   2.34211   2.36513
 Alpha virt. eigenvalues --    2.37257   2.41874   2.50008   2.51153   2.60626
 Alpha virt. eigenvalues --    2.65224   2.71651   2.74343   2.79019   2.80009
 Alpha virt. eigenvalues --    2.80908   2.82599   2.91295   2.94874   2.95767
 Alpha virt. eigenvalues --    2.98197   3.00361   3.01102   3.02810   3.04388
 Alpha virt. eigenvalues --    3.05774   3.06488   3.12751   3.13837   3.17065
 Alpha virt. eigenvalues --    3.18759   3.20682   3.21634   3.25073   3.29009
 Alpha virt. eigenvalues --    3.30732   3.31177   3.31922   3.35065   3.39730
 Alpha virt. eigenvalues --    3.47731   3.57363   3.61152   3.66926   3.76659
 Alpha virt. eigenvalues --    3.78069   3.80529   3.84587   3.91019   3.93191
 Alpha virt. eigenvalues --    3.97758   4.05968   4.07354   4.31021   4.38670
 Alpha virt. eigenvalues --    4.41057   4.44345   4.55981   4.56907   4.71130
 Alpha virt. eigenvalues --    5.25436   5.26601   5.44102   5.64909   5.79070
 Alpha virt. eigenvalues --    6.35880  24.74091  24.99570  25.10767  25.11568
 Alpha virt. eigenvalues --   25.22264  25.25250  25.34687  37.05308  51.74478
          Condensed to atoms (all electrons):
              1          2          3          4          5          6
     1  C   15.693088  -9.965554   5.112830  -5.250340   4.738292  -4.709698
     2  C   -9.965554  24.897857  -8.672543   2.974063  -5.101935   4.498619
     3  C    5.112830  -8.672543  24.649975 -10.246589   4.836357  -4.686176
     4  C   -5.250340   2.974063 -10.246589  23.650421  -8.719253   4.804148
     5  C    4.738292  -5.101935   4.836357  -8.719253  13.965122  -4.762627
     6  C   -4.709698   4.498619  -4.686176   4.804148  -4.762627  11.141120
     7  C    0.622883  -2.736740  -5.420101  -1.637074   1.064210  -0.302707
     8  H   -0.146441   0.295448  -0.312438   0.850297  -0.394467   0.161403
     9  H    0.100985  -0.065061   0.107954  -0.247464   0.602712  -0.231834
    10  H   -0.264031   0.159739  -0.088054   0.164298  -0.267701   0.606300
    11  H    0.614934  -0.288115   0.102006  -0.039001   0.078214  -0.195184
    12  H   -0.393244   0.992608  -0.443800   0.198362  -0.098481   0.128940
    13  O   -0.025281  -0.066211  -0.065484   0.136977   0.039538   0.012338
    14  N   -0.080389   0.065538  -0.311565  -0.046921   0.032963  -0.007959
    15  H   -0.019289  -0.019279  -0.096721   0.015810   0.007950  -0.000905
    16  H   -0.006414  -0.031346   0.160025  -0.012468  -0.003776  -0.003271
              7          8          9         10         11         12
     1  C    0.622883  -0.146441   0.100985  -0.264031   0.614934  -0.393244
     2  C   -2.736740   0.295448  -0.065061   0.159739  -0.288115   0.992608
     3  C   -5.420101  -0.312438   0.107954  -0.088054   0.102006  -0.443800
     4  C   -1.637074   0.850297  -0.247464   0.164298  -0.039001   0.198362
     5  C    1.064210  -0.394467   0.602712  -0.267701   0.078214  -0.098481
     6  C   -0.302707   0.161403  -0.231834   0.606300  -0.195184   0.128940
     7  C   14.929976  -0.224665   0.012419  -0.027355   0.004987  -0.156720
     8  H   -0.224665   0.559277  -0.022717   0.004387  -0.000226   0.006952
     9  H    0.012419  -0.022717   0.560423  -0.018892   0.000414   0.000373
    10  H   -0.027355   0.004387  -0.018892   0.562423  -0.016947   0.002440
    11  H    0.004987  -0.000226   0.000414  -0.016947   0.563587  -0.021756
    12  H   -0.156720   0.006952   0.000373   0.002440  -0.021756   0.628518
    13  O    0.114042   0.013072  -0.000939   0.000299  -0.000298  -0.002106
    14  N   -0.089896  -0.003491   0.000247  -0.000010  -0.000472   0.000364
    15  H    0.079322  -0.001051   0.000049  -0.000068  -0.000186  -0.000391
    16  H   -0.068034  -0.000061  -0.000053   0.000109   0.000027  -0.006388
             13         14         15         16
     1  C   -0.025281  -0.080389  -0.019289  -0.006414
     2  C   -0.066211   0.065538  -0.019279  -0.031346
     3  C   -0.065484  -0.311565  -0.096721   0.160025
     4  C    0.136977  -0.046921   0.015810  -0.012468
     5  C    0.039538   0.032963   0.007950  -0.003776
     6  C    0.012338  -0.007959  -0.000905  -0.003271
     7  C    0.114042  -0.089896   0.079322  -0.068034
     8  H    0.013072  -0.003491  -0.001051  -0.000061
     9  H   -0.000939   0.000247   0.000049  -0.000053
    10  H    0.000299  -0.000010  -0.000068   0.000109
    11  H   -0.000298  -0.000472  -0.000186   0.000027
    12  H   -0.002106   0.000364  -0.000391  -0.006388
    13  O    8.299423  -0.159325  -0.008797   0.014167
    14  N   -0.159325   7.389883   0.344010   0.282649
    15  H   -0.008797   0.344010   0.393550  -0.028951
    16  H    0.014167   0.282649  -0.028951   0.468670
 Mulliken atomic charges:
              1
     1  C   -0.022331
     2  C   -0.937088
     3  C    1.374323
     4  C   -0.595266
     5  C   -0.017116
     6  C   -0.452509
     7  C   -0.164549
     8  H    0.214722
     9  H    0.201383
    10  H    0.183063
    11  H    0.198015
    12  H    0.164328
    13  O   -0.301415
    14  N   -0.415625
    15  H    0.334948
    16  H    0.235118
 Sum of Mulliken atomic charges =   0.00000
 Mulliken charges with hydrogens summed into heavy atoms:
              1
     1  C    0.175684
     2  C   -0.772760
     3  C    1.374323
     4  C   -0.380544
     5  C    0.184267
     6  C   -0.269446
     7  C   -0.164549
    13  O   -0.301415
    14  N    0.154440
 Sum of Mulliken charges with hydrogens summed into heavy atoms =   0.00000
 Electronic spatial extent (au):  <R**2>=           1202.2593
 Charge=              0.0000 electrons
 Dipole moment (field-independent basis, Debye):
    X=              1.4685    Y=              2.8960    Z=              1.3690  Tot=              3.5239
 Quadrupole moment (field-independent basis, Debye-Ang):
   XX=            -49.0359   YY=            -49.7788   ZZ=            -56.9550
   XY=             -8.0821   XZ=             -3.6262   YZ=             -0.0896
 Traceless Quadrupole moment (field-independent basis, Debye-Ang):
   XX=              2.8874   YY=              2.1444   ZZ=             -5.0318
   XY=             -8.0821   XZ=             -3.6262   YZ=             -0.0896
 Octapole moment (field-independent basis, Debye-Ang**2):
  XXX=             -7.6420  YYY=              6.3450  ZZZ=             -0.3500  XYY=              4.1887
  XXY=             20.8467  XXZ=              9.7761  XZZ=             -9.3131  YZZ=              0.2548
  YYZ=              4.8211  XYZ=             -3.6329
 Hexadecapole moment (field-independent basis, Debye-Ang**3):
 XXXX=          -1007.1410 YYYY=           -382.4379 ZZZZ=            -79.3385 XXXY=            -62.2982
 XXXZ=            -26.7780 YYYX=            -16.7498 YYYZ=              1.7099 ZZZX=             -0.1238
 ZZZY=              4.1255 XXYY=           -253.1762 XXZZ=           -217.8350 YYZZ=            -86.1829
 XXYZ=              2.8723 YYXZ=            -11.5906 ZZXY=             -1.1617
 N-N= 4.044322563629D+02 E-N=-1.742038558200D+03  KE= 3.997283157127D+02
 No NMR shielding tensors so no spin-rotation constants.
 Leave Link  601 at Fri Dec  3 14:17:41 2021, MaxMem=  498073600 cpu:       1.4
 (Enter /apps/software//g09/l9999.exe)
 1\1\GINC-DLT17\SP\RMP2-FC\6-311++G(d,p)\C7H7N1O1\ITAMAR\03-Dec-2021\0\
 \#P MP2/6-311++G** DENSITY=MP2\\X=CONH2\\0,1\C,0,1.851353,1.226452,-0.
 139939\C,0,0.458778,1.191721,-0.157092\C,0,-0.219649,-0.024785,-0.0168
 42\C,0,0.516469,-1.205618,0.127165\C,0,1.906512,-1.168583,0.154592\C,0
 ,2.576961,0.047675,0.022338\C,0,-1.718716,-0.136805,-0.037537\H,0,-0.0
 21349,-2.141548,0.213656\H,0,2.468339,-2.087769,0.275026\H,0,3.660611,
 0.075871,0.038132\H,0,2.368628,2.171268,-0.261619\H,0,-0.090656,2.1127
 39,-0.315911\O,0,-2.285185,-1.181193,-0.314109\N,0,-2.418507,1.008154,
 0.252455\H,0,-3.419148,0.909874,0.335093\H,0,-1.985654,1.771688,0.7452
 01\\Version=EM64L-G09RevA.02\State=1-A\HF=-398.5897967\MP2=-399.923127
 1\RMSD=5.589e-09\Dipole=0.5777507,1.1393765,0.5386126\Quadrupole=2.146
 682,1.5943288,-3.7410108,-6.0088425,-2.69601,-0.066596\PG=C01 [X(C7H7N
 1O1)]\\@


 DEFINE YOUR TERMS, YOU WILL PERMIT ME AGAIN TO SAY, 
 OR WE SHALL NEVER UNDERSTAND ONE ANOTHER.

                                    -- VOLTAIRE
 Job cpu time:  0 days  0 hours 22 minutes  4.6 seconds.
 File lengths (MBytes):  RWF=     38 Int=      0 D2E=      0 Chk=      6 Scr=      1
 Normal termination of Gaussian 09 at Fri Dec  3 14:17:41 2021.
