 Entering Gaussian System, Link 0=g09
 Initial command:
 /apps/software//g09/l1.exe /scratch/itamar/2422.cluster.abaxnet/Gau-9374.inp -scrdir=/scratch/itamar/2422.cluster.abaxnet/
 Entering Link 1 = /apps/software//g09/l1.exe PID=      9375.
  
 Copyright (c) 1988,1990,1992,1993,1995,1998,2003,2009, Gaussian, Inc.
                  All Rights Reserved.
  
 This is part of the Gaussian(R) 09 program.  It is based on
 the Gaussian(R) 03 system (copyright 2003, Gaussian, Inc.),
 the Gaussian(R) 98 system (copyright 1998, Gaussian, Inc.),
 the Gaussian(R) 94 system (copyright 1995, Gaussian, Inc.),
 the Gaussian 92(TM) system (copyright 1992, Gaussian, Inc.),
 the Gaussian 90(TM) system (copyright 1990, Gaussian, Inc.),
 the Gaussian 88(TM) system (copyright 1988, Gaussian, Inc.),
 the Gaussian 86(TM) system (copyright 1986, Carnegie Mellon
 University), and the Gaussian 82(TM) system (copyright 1983,
 Carnegie Mellon University). Gaussian is a federally registered
 trademark of Gaussian, Inc.
  
 This software contains proprietary and confidential information,
 including trade secrets, belonging to Gaussian, Inc.
  
 This software is provided under written license and may be
 used, copied, transmitted, or stored only in accord with that
 written license.
  
 The following legend is applicable only to US Government
 contracts under FAR:
  
                    RESTRICTED RIGHTS LEGEND
  
 Use, reproduction and disclosure by the US Government is
 subject to restrictions as set forth in subparagraphs (a)
 and (c) of the Commercial Computer Software - Restricted
 Rights clause in FAR 52.227-19.
  
 Gaussian, Inc.
 340 Quinnipiac St., Bldg. 40, Wallingford CT 06492
  
  
 ---------------------------------------------------------------
 Warning -- This program may not be used in any manner that
 competes with the business of Gaussian, Inc. or will provide
 assistance to any competitor of Gaussian, Inc.  The licensee
 of this program is prohibited from giving any competitor of
 Gaussian, Inc. access to this program.  By using this program,
 the user acknowledges that Gaussian, Inc. is engaged in the
 business of creating and licensing software in the field of
 computational chemistry and represents and warrants to the
 licensee that it is not a competitor of Gaussian, Inc. and that
 it will not use this program in any manner prohibited above.
 ---------------------------------------------------------------
  

 Cite this work as:
 Gaussian 09, Revision A.02,
 M. J. Frisch, G. W. Trucks, H. B. Schlegel, G. E. Scuseria, 
 M. A. Robb, J. R. Cheeseman, G. Scalmani, V. Barone, B. Mennucci, 
 G. A. Petersson, H. Nakatsuji, M. Caricato, X. Li, H. P. Hratchian, 
 A. F. Izmaylov, J. Bloino, G. Zheng, J. L. Sonnenberg, M. Hada, 
 M. Ehara, K. Toyota, R. Fukuda, J. Hasegawa, M. Ishida, T. Nakajima, 
 Y. Honda, O. Kitao, H. Nakai, T. Vreven, J. A. Montgomery, Jr., 
 J. E. Peralta, F. Ogliaro, M. Bearpark, J. J. Heyd, E. Brothers, 
 K. N. Kudin, V. N. Staroverov, R. Kobayashi, J. Normand, 
 K. Raghavachari, A. Rendell, J. C. Burant, S. S. Iyengar, J. Tomasi, 
 M. Cossi, N. Rega, J. M. Millam, M. Klene, J. E. Knox, J. B. Cross, 
 V. Bakken, C. Adamo, J. Jaramillo, R. Gomperts, R. E. Stratmann, 
 O. Yazyev, A. J. Austin, R. Cammi, C. Pomelli, J. W. Ochterski, 
 R. L. Martin, K. Morokuma, V. G. Zakrzewski, G. A. Voth, 
 P. Salvador, J. J. Dannenberg, S. Dapprich, A. D. Daniels, 
 O. Farkas, J. B. Foresman, J. V. Ortiz, J. Cioslowski, 
 and D. J. Fox, Gaussian, Inc., Wallingford CT, 2009.
 
 ******************************************
 Gaussian 09:  EM64L-G09RevA.02 11-Jun-2009
                 3-Dec-2021 
 ******************************************
 %Mem=3800MB
 %NProcShared=6
 Will use up to    6 processors via shared memory.
 %chk=/home/itamar/Aromaticity-test-set/T3-Boat-Like/20/boat-20.chk
 -----------------------------
 #P MP2/6-311++G** DENSITY=MP2
 -----------------------------
 1/30=1,38=1/1;
 2/12=2,17=6,18=5,40=1/2;
 3/5=4,6=6,7=1111,11=9,16=1,25=1,30=1,71=1/1,2,3;
 4//1;
 5/5=2,38=5/2;
 8/6=4,10=2/1;
 9/15=1,16=-3/6;
 10/5=1,13=10/2;
 6/7=2,8=2,9=2,10=2,22=2/1;
 99/5=1,9=1/99;
 Leave Link    1 at Fri Dec  3 15:00:57 2021, MaxMem=  498073600 cpu:       0.1
 (Enter /apps/software//g09/l101.exe)
 -------
 Boat-20
 -------
 Symbolic Z-matrix:
 Charge =  0 Multiplicity = 1
 6                    -0.0039    1.39262   0.08201 
 6                     1.20788   0.69295   0.08201 
 6                     1.1822   -0.68256  -0.16019 
 6                     0.0039   -1.39262   0.08201 
 6                    -1.20788  -0.69295   0.08201 
 6                    -1.1822    0.68256  -0.16019 
 1                    -0.01524   2.47519   0.13643 
 1                     2.15114   1.22431   0.13675 
 1                     2.11673  -1.22207  -0.27701 
 1                     0.01524  -2.47519   0.13643 
 1                    -2.15114  -1.22431   0.13675 
 1                    -2.11673   1.22207  -0.27701 
 
 NAtoms=     12 NQM=     12 NQMF=      0 NMic=      0 NMicF=      0 NTot=     12.
                    Isotopes and Nuclear Properties:
 (Nuclear quadrupole moments (NQMom) in fm**2, nuclear magnetic moments (NMagM)
  in nuclear magnetons)

  Atom         1           2           3           4           5           6           7           8           9          10
 IAtWgt=          12          12          12          12          12          12           1           1           1           1
 AtmWgt=  12.0000000  12.0000000  12.0000000  12.0000000  12.0000000  12.0000000   1.0078250   1.0078250   1.0078250   1.0078250
 NucSpn=           0           0           0           0           0           0           1           1           1           1
 AtZEff=   0.0000000   0.0000000   0.0000000   0.0000000   0.0000000   0.0000000   0.0000000   0.0000000   0.0000000   0.0000000
 NQMom=    0.0000000   0.0000000   0.0000000   0.0000000   0.0000000   0.0000000   0.0000000   0.0000000   0.0000000   0.0000000
 NMagM=    0.0000000   0.0000000   0.0000000   0.0000000   0.0000000   0.0000000   2.7928460   2.7928460   2.7928460   2.7928460

  Atom        11          12
 IAtWgt=           1           1
 AtmWgt=   1.0078250   1.0078250
 NucSpn=           1           1
 AtZEff=   0.0000000   0.0000000
 NQMom=    0.0000000   0.0000000
 NMagM=    2.7928460   2.7928460
 Leave Link  101 at Fri Dec  3 15:00:57 2021, MaxMem=  498073600 cpu:       0.1
 (Enter /apps/software//g09/l202.exe)
                          Input orientation:                          
 ---------------------------------------------------------------------
 Center     Atomic      Atomic             Coordinates (Angstroms)
 Number     Number       Type             X           Y           Z
 ---------------------------------------------------------------------
      1          6           0       -0.003900    1.392615    0.082010
      2          6           0        1.207876    0.692948    0.082010
      3          6           0        1.182198   -0.682559   -0.160191
      4          6           0        0.003900   -1.392615    0.082010
      5          6           0       -1.207876   -0.692948    0.082010
      6          6           0       -1.182198    0.682559   -0.160191
      7          1           0       -0.015236    2.475194    0.136427
      8          1           0        2.151137    1.224307    0.136753
      9          1           0        2.116727   -1.222072   -0.277010
     10          1           0        0.015236   -2.475194    0.136427
     11          1           0       -2.151137   -1.224307    0.136753
     12          1           0       -2.116727    1.222072   -0.277010
 ---------------------------------------------------------------------
                    Distance matrix (angstroms):
                    1          2          3          4          5
     1  C    0.000000
     2  C    1.399262   0.000000
     3  C    2.402465   1.396904   0.000000
     4  C    2.785241   2.408139   1.396863   0.000000
     5  C    2.408139   2.785061   2.402337   1.399262   0.000000
     6  C    1.396863   2.402337   2.730186   2.402465   1.396904
     7  H    1.084005   2.162259   3.390167   3.868239   3.385628
     8  H    2.162292   1.084011   2.159434   3.385543   3.868053
     9  H    3.385638   2.149932   1.085387   2.149888   3.385536
    10  H    3.868239   3.385628   2.159473   1.084005   2.162259
    11  H    3.385543   3.868053   3.390102   2.162292   1.084011
    12  H    2.149888   3.385536   3.811059   3.385638   2.149932
                    6          7          8          9         10
     6  C    0.000000
     7  H    2.159473   0.000000
     8  H    3.390102   2.501578   0.000000
     9  H    3.811059   4.287887   2.481361   0.000000
    10  H    3.390167   4.950482   4.271812   2.481433   0.000000
    11  H    2.159434   4.271812   4.950280   4.287875   2.501578
    12  H    1.085387   2.481433   4.287875   4.888351   4.287887
                   11         12
    11  H    0.000000
    12  H    2.481361   0.000000
 Stoichiometry    C6H6
 Framework group  C2[X(C6H6)]
 Deg. of freedom    16
 Full point group                 C2      NOp   2
 Largest Abelian subgroup         C2      NOp   2
 Largest concise Abelian subgroup C2      NOp   2
                         Standard orientation:                         
 ---------------------------------------------------------------------
 Center     Atomic      Atomic             Coordinates (Angstroms)
 Number     Number       Type             X           Y           Z
 ---------------------------------------------------------------------
      1          6           0        0.029892    1.392300   -0.081098
      2          6           0       -1.194732    0.715372   -0.081098
      3          6           0       -1.194732   -0.660375    0.161103
      4          6           0       -0.029892   -1.392300   -0.081098
      5          6           0        1.194732   -0.715372   -0.081098
      6          6           0        1.194732    0.660375    0.161103
      7          1           0        0.061432    2.474478   -0.135515
      8          1           0       -2.127911    1.264244   -0.135841
      9          1           0       -2.139168   -1.182351    0.277922
     10          1           0       -0.061432   -2.474478   -0.135515
     11          1           0        2.127911   -1.264244   -0.135841
     12          1           0        2.139168    1.182351    0.277922
 ---------------------------------------------------------------------
 Rotational constants (GHZ):      5.7602550      5.6689090      2.8953616
 Leave Link  202 at Fri Dec  3 15:00:57 2021, MaxMem=  498073600 cpu:       0.0
 (Enter /apps/software//g09/l301.exe)
 Standard basis: 6-311++G(d,p) (5D, 7F)
 Ernie: Thresh=  0.10000D-02 Tol=  0.10000D-05 Strict=F.
 There are    87 symmetry adapted basis functions of A   symmetry.
 There are    87 symmetry adapted basis functions of B   symmetry.
 Integral buffers will be    131072 words long.
 Raffenetti 1 integral format.
 Two-electron integral symmetry is turned on.
   174 basis functions,   270 primitive gaussians,   180 cartesian basis functions
    21 alpha electrons       21 beta electrons
       nuclear repulsion energy       203.7450520157 Hartrees.
 IExCor=    0 DFT=F Ex=HF Corr=None ExCW=0 ScaHFX=  1.000000
 ScaDFX=  1.000000  1.000000  1.000000  1.000000 ScalE2=  1.000000  1.000000
 IRadAn=      0 IRanWt=     -1 IRanGd=            0 ICorTp=0
 NAtoms=   12 NActive=   12 NUniq=    6 SFac= 3.00D+00 NAtFMM=   80 NAOKFM=F Big=F
 Leave Link  301 at Fri Dec  3 15:00:57 2021, MaxMem=  498073600 cpu:       0.1
 (Enter /apps/software//g09/l302.exe)
 NPDir=0 NMtPBC=     1 NCelOv=     1 NCel=       1 NClECP=     1 NCelD=      1
         NCelK=      1 NCelE2=     1 NClLst=     1 CellRange=     0.0.
 One-electron integrals computed using PRISM.
 One-electron integral symmetry used in STVInt
 NBasis=   174 RedAO= T  NBF=    87    87
 NBsUse=   174 1.00D-06 NBFU=    87    87
 Leave Link  302 at Fri Dec  3 15:00:57 2021, MaxMem=  498073600 cpu:       0.3
 (Enter /apps/software//g09/l303.exe)
 DipDrv:  MaxL=1.
 Leave Link  303 at Fri Dec  3 15:00:57 2021, MaxMem=  498073600 cpu:       0.1
 (Enter /apps/software//g09/l401.exe)
 Harris functional with IExCor=  205 diagonalized for initial guess.
 ExpMin= 3.60D-02 ExpMax= 4.56D+03 ExpMxC= 6.82D+02 IAcc=3 IRadAn=         0 AccDes= 0.00D+00
 HarFok:  IExCor=  205 AccDes= 0.00D+00 IRadAn=         0 IDoV= 1
 ScaDFX=  1.000000  1.000000  1.000000  1.000000
 FoFCou: FMM=F IPFlag=           0 FMFlag=      100000 FMFlg1=           0
         NFxFlg=           0 DoJE=T BraDBF=F KetDBF=T FulRan=T
         Omega=  0.000000  0.000000  1.000000  0.000000  0.000000 ICntrl=     500 IOpCl=  0
         NMat0=    1 NMatS0=    1 NMatT0=    0 NMatD0=    1 NMtDS0=    0 NMtDT0=    0
         I1Cent=           4 NGrid=           0.
 Petite list used in FoFCou.
 Harris En= -231.136142973440    
 Initial guess orbital symmetries:
       Occupied  (A) (B) (B) (A) (A) (B) (A) (B) (B) (A) (A) (A)
                 (B) (B) (B) (B) (A) (A) (A) (B) (B)
       Virtual   (A) (A) (B) (A) (B) (B) (A) (A) (A) (A) (B) (B)
                 (B) (B) (A) (B) (A) (B) (A) (B) (B) (A) (A) (A)
                 (B) (A) (B) (B) (A) (B) (A) (A) (A) (B) (A) (B)
                 (B) (A) (A) (B) (B) (B) (A) (A) (B) (B) (A) (A)
                 (B) (A) (A) (B) (A) (B) (B) (A) (A) (A) (B) (B)
                 (A) (B) (B) (B) (A) (A) (B) (A) (A) (B) (B) (B)
                 (A) (B) (A) (B) (A) (B) (A) (A) (A) (B) (B) (B)
                 (B) (A) (A) (A) (B) (A) (B) (A) (B) (A) (B) (B)
                 (A) (A) (B) (B) (B) (A) (A) (B) (B) (A) (B) (A)
                 (A) (A) (B) (A) (A) (A) (B) (B) (B) (B) (A) (B)
                 (B) (A) (A) (B) (B) (A) (B) (B) (A) (A) (A) (A)
                 (A) (B) (B) (A) (A) (B) (B) (A) (B) (A) (A) (B)
                 (B) (B) (A) (A) (B) (B) (A) (A) (B)
 The electronic state of the initial guess is 1-A.
 Leave Link  401 at Fri Dec  3 15:00:58 2021, MaxMem=  498073600 cpu:       0.8
 (Enter /apps/software//g09/l502.exe)
 Closed shell SCF:
 Requested convergence on RMS density matrix=1.00D-08 within 128 cycles.
 Requested convergence on MAX density matrix=1.00D-06.
 Requested convergence on             energy=1.00D-06.
 No special actions if energy rises.
 Using DIIS extrapolation, IDIIS=  1040.
 Integral symmetry usage will be decided dynamically.
 Keep R1 ints in memory in canonical form, NReq=135772999.
 IEnd=      118010 IEndB=      118010 NGot=   498073600 MDV=   365314588
 LenX=   365314588 LenY=   365281747
 Symmetry not used in FoFDir.
 MinBra= 0 MaxBra= 2 Meth= 1.
 IRaf=       0 NMat=   1 IRICut=       1 DoRegI=T DoRafI=F ISym2E= 0 JSym2E=0.

 Cycle   1  Pass 1  IDiag  1:
 E= -230.436817044449    
 DIIS: error= 5.71D-02 at cycle   1 NSaved=   1.
 NSaved= 1 IEnMin= 1 EnMin= -230.436817044449     IErMin= 1 ErrMin= 5.71D-02
 ErrMax= 5.71D-02 EMaxC= 1.00D-01 BMatC= 5.15D-01 BMatP= 5.15D-01
 IDIUse=3 WtCom= 4.29D-01 WtEn= 5.71D-01
 Coeff-Com:  0.100D+01
 Coeff-En:   0.100D+01
 Coeff:      0.100D+01
 Gap=     0.465 Goal=   None    Shift=    0.000
 GapD=    0.465 DampG=2.000 DampE=0.500 DampFc=1.0000 IDamp=-1.
 RMSDP=8.15D-02 MaxDP=2.34D+00              OVMax= 1.61D-01

 Cycle   2  Pass 1  IDiag  1:
 E= -230.689073123720     Delta-E=       -0.252256079271 Rises=F Damp=F
 DIIS: error= 2.72D-02 at cycle   2 NSaved=   2.
 NSaved= 2 IEnMin= 2 EnMin= -230.689073123720     IErMin= 2 ErrMin= 2.72D-02
 ErrMax= 2.72D-02 EMaxC= 1.00D-01 BMatC= 5.03D-02 BMatP= 5.15D-01
 IDIUse=3 WtCom= 7.28D-01 WtEn= 2.72D-01
 Coeff-Com:  0.160D+00 0.840D+00
 Coeff-En:   0.000D+00 0.100D+01
 Coeff:      0.117D+00 0.883D+00
 Gap=     0.413 Goal=   None    Shift=    0.000
 RMSDP=1.31D-01 MaxDP=3.70D+00 DE=-2.52D-01 OVMax= 6.05D-02

 Cycle   3  Pass 1  IDiag  1:
 E= -230.732774730336     Delta-E=       -0.043701606616 Rises=F Damp=F
 DIIS: error= 8.45D-03 at cycle   3 NSaved=   3.
 NSaved= 3 IEnMin= 3 EnMin= -230.732774730336     IErMin= 3 ErrMin= 8.45D-03
 ErrMax= 8.45D-03 EMaxC= 1.00D-01 BMatC= 5.96D-03 BMatP= 5.03D-02
 IDIUse=3 WtCom= 9.16D-01 WtEn= 8.45D-02
 Coeff-Com: -0.199D-01 0.228D+00 0.791D+00
 Coeff-En:   0.000D+00 0.000D+00 0.100D+01
 Coeff:     -0.182D-01 0.209D+00 0.809D+00
 Gap=     0.374 Goal=   None    Shift=    0.000
 RMSDP=7.79D-03 MaxDP=2.23D-01 DE=-4.37D-02 OVMax= 1.61D-02

 Cycle   4  Pass 1  IDiag  1:
 E= -230.738524597741     Delta-E=       -0.005749867405 Rises=F Damp=F
 DIIS: error= 1.14D-03 at cycle   4 NSaved=   4.
 NSaved= 4 IEnMin= 4 EnMin= -230.738524597741     IErMin= 4 ErrMin= 1.14D-03
 ErrMax= 1.14D-03 EMaxC= 1.00D-01 BMatC= 4.08D-05 BMatP= 5.96D-03
 IDIUse=3 WtCom= 9.89D-01 WtEn= 1.14D-02
 Coeff-Com: -0.185D-02-0.169D-01 0.912D-02 0.101D+01
 Coeff-En:   0.000D+00 0.000D+00 0.000D+00 0.100D+01
 Coeff:     -0.183D-02-0.167D-01 0.902D-02 0.101D+01
 Gap=     0.374 Goal=   None    Shift=    0.000
 RMSDP=4.91D-03 MaxDP=1.38D-01 DE=-5.75D-03 OVMax= 2.23D-03

 Cycle   5  Pass 1  IDiag  1:
 E= -230.738588314912     Delta-E=       -0.000063717171 Rises=F Damp=F
 DIIS: error= 2.06D-04 at cycle   5 NSaved=   5.
 NSaved= 5 IEnMin= 5 EnMin= -230.738588314912     IErMin= 5 ErrMin= 2.06D-04
 ErrMax= 2.06D-04 EMaxC= 1.00D-01 BMatC= 2.29D-06 BMatP= 4.08D-05
 IDIUse=3 WtCom= 9.98D-01 WtEn= 2.06D-03
 Coeff-Com:  0.111D-02-0.904D-02-0.403D-01-0.158D+00 0.121D+01
 Coeff-En:   0.000D+00 0.000D+00 0.000D+00 0.000D+00 0.100D+01
 Coeff:      0.111D-02-0.902D-02-0.402D-01-0.158D+00 0.121D+01
 Gap=     0.374 Goal=   None    Shift=    0.000
 RMSDP=1.24D-03 MaxDP=3.44D-02 DE=-6.37D-05 OVMax= 6.95D-04

 Cycle   6  Pass 1  IDiag  1:
 E= -230.738593469835     Delta-E=       -0.000005154923 Rises=F Damp=F
 DIIS: error= 3.28D-05 at cycle   6 NSaved=   6.
 NSaved= 6 IEnMin= 6 EnMin= -230.738593469835     IErMin= 6 ErrMin= 3.28D-05
 ErrMax= 3.28D-05 EMaxC= 1.00D-01 BMatC= 9.73D-08 BMatP= 2.29D-06
 IDIUse=1 WtCom= 1.00D+00 WtEn= 0.00D+00
 Coeff-Com:  0.236D-03-0.133D-02-0.682D-02-0.430D-01 0.180D+00 0.871D+00
 Coeff:      0.236D-03-0.133D-02-0.682D-02-0.430D-01 0.180D+00 0.871D+00
 Gap=     0.374 Goal=   None    Shift=    0.000
 RMSDP=3.96D-05 MaxDP=1.16D-03 DE=-5.15D-06 OVMax= 1.63D-04

 Cycle   7  Pass 1  IDiag  1:
 E= -230.738593638112     Delta-E=       -0.000000168277 Rises=F Damp=F
 DIIS: error= 2.08D-05 at cycle   7 NSaved=   7.
 NSaved= 7 IEnMin= 7 EnMin= -230.738593638112     IErMin= 7 ErrMin= 2.08D-05
 ErrMax= 2.08D-05 EMaxC= 1.00D-01 BMatC= 1.45D-08 BMatP= 9.73D-08
 IDIUse=1 WtCom= 1.00D+00 WtEn= 0.00D+00
 Coeff-Com: -0.120D-03 0.105D-02 0.472D-02 0.180D-01-0.149D+00 0.904D-01
 Coeff-Com:  0.104D+01
 Coeff:     -0.120D-03 0.105D-02 0.472D-02 0.180D-01-0.149D+00 0.904D-01
 Coeff:      0.104D+01
 Gap=     0.374 Goal=   None    Shift=    0.000
 RMSDP=6.08D-06 MaxDP=1.80D-04 DE=-1.68D-07 OVMax= 7.96D-05

 Cycle   8  Pass 1  IDiag  1:
 E= -230.738593674929     Delta-E=       -0.000000036817 Rises=F Damp=F
 DIIS: error= 6.32D-06 at cycle   8 NSaved=   8.
 NSaved= 8 IEnMin= 8 EnMin= -230.738593674929     IErMin= 8 ErrMin= 6.32D-06
 ErrMax= 6.32D-06 EMaxC= 1.00D-01 BMatC= 9.99D-10 BMatP= 1.45D-08
 IDIUse=1 WtCom= 1.00D+00 WtEn= 0.00D+00
 Coeff-Com:  0.225D-04-0.265D-03-0.124D-02-0.326D-02 0.425D-01-0.104D+00
 Coeff-Com: -0.411D+00 0.148D+01
 Coeff:      0.225D-04-0.265D-03-0.124D-02-0.326D-02 0.425D-01-0.104D+00
 Coeff:     -0.411D+00 0.148D+01
 Gap=     0.374 Goal=   None    Shift=    0.000
 RMSDP=3.21D-06 MaxDP=8.02D-05 DE=-3.68D-08 OVMax= 3.80D-05

 Cycle   9  Pass 1  IDiag  1:
 E= -230.738593679064     Delta-E=       -0.000000004136 Rises=F Damp=F
 DIIS: error= 6.55D-07 at cycle   9 NSaved=   9.
 NSaved= 9 IEnMin= 9 EnMin= -230.738593679064     IErMin= 9 ErrMin= 6.55D-07
 ErrMax= 6.55D-07 EMaxC= 1.00D-01 BMatC= 2.37D-11 BMatP= 9.99D-10
 IDIUse=1 WtCom= 1.00D+00 WtEn= 0.00D+00
 Coeff-Com: -0.239D-05 0.415D-04 0.218D-03 0.398D-03-0.804D-02 0.297D-01
 Coeff-Com:  0.863D-01-0.442D+00 0.133D+01
 Coeff:     -0.239D-05 0.415D-04 0.218D-03 0.398D-03-0.804D-02 0.297D-01
 Coeff:      0.863D-01-0.442D+00 0.133D+01
 Gap=     0.374 Goal=   None    Shift=    0.000
 RMSDP=3.75D-06 MaxDP=1.05D-04 DE=-4.14D-09 OVMax= 4.47D-06

 Cycle  10  Pass 1  IDiag  1:
 E= -230.738593679148     Delta-E=       -0.000000000084 Rises=F Damp=F
 DIIS: error= 9.21D-08 at cycle  10 NSaved=  10.
 NSaved=10 IEnMin=10 EnMin= -230.738593679148     IErMin=10 ErrMin= 9.21D-08
 ErrMax= 9.21D-08 EMaxC= 1.00D-01 BMatC= 8.29D-13 BMatP= 2.37D-11
 IDIUse=1 WtCom= 1.00D+00 WtEn= 0.00D+00
 Coeff-Com: -0.756D-06 0.935D-05 0.412D-04 0.121D-03-0.147D-02 0.388D-02
 Coeff-Com:  0.136D-01-0.519D-01 0.128D-01 0.102D+01
 Coeff:     -0.756D-06 0.935D-05 0.412D-04 0.121D-03-0.147D-02 0.388D-02
 Coeff:      0.136D-01-0.519D-01 0.128D-01 0.102D+01
 Gap=     0.374 Goal=   None    Shift=    0.000
 RMSDP=3.40D-07 MaxDP=1.08D-05 DE=-8.40D-11 OVMax= 5.49D-07

 Cycle  11  Pass 1  IDiag  1:
 E= -230.738593679150     Delta-E=       -0.000000000002 Rises=F Damp=F
 DIIS: error= 2.90D-08 at cycle  11 NSaved=  11.
 NSaved=11 IEnMin=11 EnMin= -230.738593679150     IErMin=11 ErrMin= 2.90D-08
 ErrMax= 2.90D-08 EMaxC= 1.00D-01 BMatC= 7.27D-14 BMatP= 8.29D-13
 IDIUse=1 WtCom= 1.00D+00 WtEn= 0.00D+00
 Coeff-Com:  0.194D-06-0.333D-05-0.183D-04-0.321D-04 0.669D-03-0.238D-02
 Coeff-Com: -0.752D-02 0.374D-01-0.115D+00 0.200D-01 0.107D+01
 Coeff:      0.194D-06-0.333D-05-0.183D-04-0.321D-04 0.669D-03-0.238D-02
 Coeff:     -0.752D-02 0.374D-01-0.115D+00 0.200D-01 0.107D+01
 Gap=     0.374 Goal=   None    Shift=    0.000
 RMSDP=1.56D-08 MaxDP=5.40D-07 DE=-1.76D-12 OVMax= 2.06D-07

 Cycle  12  Pass 1  IDiag  1:
 E= -230.738593679146     Delta-E=        0.000000000004 Rises=F Damp=F
 DIIS: error= 6.76D-09 at cycle  12 NSaved=  12.
 NSaved=12 IEnMin=11 EnMin= -230.738593679150     IErMin=12 ErrMin= 6.76D-09
 ErrMax= 6.76D-09 EMaxC= 1.00D-01 BMatC= 3.38D-15 BMatP= 7.27D-14
 IDIUse=1 WtCom= 1.00D+00 WtEn= 0.00D+00
 Coeff-Com: -0.873D-08 0.353D-06 0.273D-05 0.607D-06-0.977D-04 0.459D-03
 Coeff-Com:  0.112D-02-0.677D-02 0.279D-01-0.530D-01-0.270D+00 0.130D+01
 Coeff:     -0.873D-08 0.353D-06 0.273D-05 0.607D-06-0.977D-04 0.459D-03
 Coeff:      0.112D-02-0.677D-02 0.279D-01-0.530D-01-0.270D+00 0.130D+01
 Gap=     0.374 Goal=   None    Shift=    0.000
 RMSDP=2.38D-08 MaxDP=6.43D-07 DE= 4.21D-12 OVMax= 5.87D-08

 Cycle  13  Pass 1  IDiag  1:
 E= -230.738593679148     Delta-E=       -0.000000000002 Rises=F Damp=F
 DIIS: error= 1.14D-09 at cycle  13 NSaved=  13.
 NSaved=13 IEnMin=11 EnMin= -230.738593679150     IErMin=13 ErrMin= 1.14D-09
 ErrMax= 1.14D-09 EMaxC= 1.00D-01 BMatC= 8.06D-17 BMatP= 3.38D-15
 IDIUse=1 WtCom= 1.00D+00 WtEn= 0.00D+00
 Coeff-Com: -0.379D-08 0.300D-07 0.199D-07 0.832D-06-0.132D-05-0.642D-05
 Coeff-Com: -0.920D-05 0.160D-03-0.184D-02 0.961D-02 0.201D-01-0.251D+00
 Coeff-Com:  0.122D+01
 Coeff:     -0.379D-08 0.300D-07 0.199D-07 0.832D-06-0.132D-05-0.642D-05
 Coeff:     -0.920D-05 0.160D-03-0.184D-02 0.961D-02 0.201D-01-0.251D+00
 Coeff:      0.122D+01
 Gap=     0.374 Goal=   None    Shift=    0.000
 RMSDP=1.07D-08 MaxDP=3.16D-07 DE=-2.16D-12 OVMax= 7.14D-09

 Cycle  14  Pass 1  IDiag  1:
 E= -230.738593679150     Delta-E=       -0.000000000002 Rises=F Damp=F
 DIIS: error= 2.30D-10 at cycle  14 NSaved=  14.
 NSaved=14 IEnMin=11 EnMin= -230.738593679150     IErMin=14 ErrMin= 2.30D-10
 ErrMax= 2.30D-10 EMaxC= 1.00D-01 BMatC= 6.53D-18 BMatP= 8.06D-17
 IDIUse=1 WtCom= 1.00D+00 WtEn= 0.00D+00
 Coeff-Com:  0.118D-09-0.112D-07-0.959D-07 0.655D-07 0.319D-05-0.143D-04
 Coeff-Com: -0.445D-04 0.249D-03-0.106D-02 0.234D-02 0.105D-01-0.603D-01
 Coeff-Com:  0.742D-01 0.974D+00
 Coeff:      0.118D-09-0.112D-07-0.959D-07 0.655D-07 0.319D-05-0.143D-04
 Coeff:     -0.445D-04 0.249D-03-0.106D-02 0.234D-02 0.105D-01-0.603D-01
 Coeff:      0.742D-01 0.974D+00
 Gap=     0.374 Goal=   None    Shift=    0.000
 RMSDP=1.62D-09 MaxDP=4.94D-08 DE=-2.05D-12 OVMax= 1.26D-09

 SCF Done:  E(RHF) =  -230.738593679     A.U. after   14 cycles
             Convg  =    0.1623D-08             -V/T =  2.0013
 KE= 2.304407342285D+02 PE=-9.442739313810D+02 EE= 2.793495514576D+02
 Leave Link  502 at Fri Dec  3 15:01:01 2021, MaxMem=  498073600 cpu:      18.5
 (Enter /apps/software//g09/l801.exe)
 ExpMin= 3.60D-02 ExpMax= 4.56D+03 ExpMxC= 6.82D+02 IAcc=3 IRadAn=         5 AccDes= 0.00D+00
 HarFok:  IExCor=  205 AccDes= 0.00D+00 IRadAn=         5 IDoV=-2
 ScaDFX=  1.000000  1.000000  1.000000  1.000000
 Largest valence mixing into a core orbital is  1.48D-04
 Largest core mixing into a valence orbital is  4.02D-05
 Range of M.O.s used for correlation:     7   174
 NBasis=   174 NAE=    21 NBE=    21 NFC=     6 NFV=     0
 NROrb=    168 NOA=    15 NOB=    15 NVA=   153 NVB=   153

 **** Warning!!: The largest alpha MO coefficient is  0.14610278D+03

 Leave Link  801 at Fri Dec  3 15:01:01 2021, MaxMem=  498073600 cpu:       0.4
 (Enter /apps/software//g09/l906.exe)
 Frozen-core derivative calculation, NFC=   6 NFV=   0.
 FulOut=F Deriv=T AODrv=F NAtomX=    12
   MMem=         328  MDisk=          15 MDiskD=          15
  W3Min=      657720 MinDsk=     1009670 NBas6D=         180
 NBas2D=       16542    NTT=       16290    LW2=     2040000
    MDV=   497692901 MDiskM=       38247 NBas2p=        8394
 Fully in-core method, ICMem=   280919484.
 IMap=   1   2   3   4   5   6   7   8   9  10  11  12  13  14  15  16  17  18  19  20
 IMap=  21
 JobTyp=1 Pass  1 fully in-core, NPsUse=  6.
 Compute canonical integrals, IntTyp=   4.
 Symmetry not used in FoFDir.
 MinBra= 0 MaxBra= 2 Meth= 1.
 IRaf=       0 NMat=   1 IRICut=       1 DoRegI=T DoRafI=F ISym2E= 0 JSym2E=0.
 Spin components of T(2) and E(2):
     alpha-alpha T2 =       0.4281576643D-01 E2=     -0.1084327477D+00
     alpha-beta  T2 =       0.2253979866D+00 E2=     -0.6157809384D+00
     beta-beta   T2 =       0.4281576643D-01 E2=     -0.1084327477D+00
 The integrals were generated   1 times.
 ANorm=    0.1145001974D+01
 E2 =    -0.8326464339D+00 EUMP2 =    -0.23157124011304D+03
 Leave Link  906 at Fri Dec  3 15:01:16 2021, MaxMem=  498073600 cpu:      88.4
 (Enter /apps/software//g09/l1002.exe)
 Minotr:  Closed shell wavefunction.
          Computing MP2/KS-MP2 derivatives.
          Using Z-Vector for PSCF gradient.
          Skipping F1 and S1 gradient terms here.
          Frozen-core window.
          Direct CPHF calculation.
          Differentiating once with respect to electric field.
                with respect to dipole field.
          Electric field/nuclear overlap derivatives assumed to be zero.
          Using symmetry in CPHF.
          Requested convergence is 1.0D-10 RMS, and 1.0D-09 maximum.
          NewPWx=F KeepS1=T KeepF1=T KeepIn=T MapXYZ=F SortEE=F KeepMc=T.
          MDV=     498073500 using IRadAn=       0.
          Keep R1 ints in memory in canonical form, NReq=133511598.
 Symmetry not used in FoFDir.
 MinBra= 0 MaxBra= 2 Meth= 1.
 IRaf=       0 NMat=   1 IRICut=       1 DoRegI=T DoRafI=F ISym2E= 0 JSym2E=0.
          Solving linear equations separately, MaxMat=       0.
          There are     1 degrees of freedom in the 1st order CPHF.  IDoFFX=0.
 LinEq1:  Iter=  0 NonCon=     1 RMS=3.42D-03 Max=7.09D-02
 AX will form     1 AO Fock derivatives at one time.
 LinEq1:  Iter=  1 NonCon=     1 RMS=8.35D-04 Max=1.47D-02
 LinEq1:  Iter=  2 NonCon=     1 RMS=2.45D-04 Max=5.39D-03
 LinEq1:  Iter=  3 NonCon=     1 RMS=5.32D-05 Max=7.60D-04
 LinEq1:  Iter=  4 NonCon=     1 RMS=8.99D-06 Max=1.18D-04
 LinEq1:  Iter=  5 NonCon=     1 RMS=1.73D-06 Max=3.29D-05
 LinEq1:  Iter=  6 NonCon=     1 RMS=7.29D-07 Max=1.29D-05
 LinEq1:  Iter=  7 NonCon=     1 RMS=1.41D-07 Max=1.75D-06
 LinEq1:  Iter=  8 NonCon=     1 RMS=1.75D-08 Max=1.90D-07
 LinEq1:  Iter=  9 NonCon=     1 RMS=3.08D-09 Max=3.61D-08
 LinEq1:  Iter= 10 NonCon=     1 RMS=7.92D-10 Max=1.01D-08
 LinEq1:  Iter= 11 NonCon=     1 RMS=1.49D-10 Max=1.90D-09
 LinEq1:  Iter= 12 NonCon=     0 RMS=2.35D-11 Max=2.94D-10
 Linear equations converged to 1.000D-10 1.000D-09 after    12 iterations.
 End of Minotr Frequency-dependent properties file   721 does not exist.
 End of Minotr Frequency-dependent properties file   722 does not exist.
 Leave Link 1002 at Fri Dec  3 15:01:19 2021, MaxMem=  498073600 cpu:      19.0
 (Enter /apps/software//g09/l601.exe)
 Copying SCF densities to generalized density rwf, IOpCl= 0 IROHF=0.

 **********************************************************************

            Population analysis using the MP2 density.

 **********************************************************************

 Orbital symmetries:
       Occupied  (A) (B) (B) (A) (A) (B) (A) (B) (B) (A) (A) (A)
                 (B) (B) (B) (B) (A) (A) (A) (B) (B)
       Virtual   (A) (B) (B) (A) (A) (B) (A) (A) (A) (B) (B) (B)
                 (A) (B) (A) (B) (A) (A) (B) (A) (A) (A) (A) (B)
                 (B) (B) (B) (A) (B) (A) (B) (A) (A) (B) (B) (A)
                 (B) (A) (B) (A) (B) (A) (B) (B) (A) (B) (A) (A)
                 (B) (B) (A) (B) (A) (B) (A) (A) (A) (A) (B) (B)
                 (B) (B) (B) (A) (A) (A) (B) (A) (A) (B) (A) (B)
                 (B) (B) (A) (B) (B) (A) (A) (A) (B) (A) (B) (B)
                 (B) (A) (B) (A) (A) (A) (B) (A) (B) (A) (B) (B)
                 (A) (A) (B) (B) (A) (B) (B) (A) (B) (A) (B) (A)
                 (A) (A) (B) (A) (A) (A) (B) (B) (B) (B) (B) (A)
                 (A) (B) (B) (B) (A) (A) (B) (A) (B) (A) (A) (A)
                 (A) (B) (B) (A) (A) (B) (B) (A) (B) (A) (A) (B)
                 (B) (B) (A) (A) (B) (B) (A) (A) (B)
 The electronic state is 1-A.
 Alpha  occ. eigenvalues --  -11.23952 -11.23921 -11.23864 -11.23801 -11.23711
 Alpha  occ. eigenvalues --  -11.23684  -1.15346  -1.01506  -1.01451  -0.82267
 Alpha  occ. eigenvalues --   -0.82248  -0.71054  -0.64643  -0.61577  -0.59091
 Alpha  occ. eigenvalues --   -0.58653  -0.50945  -0.49766  -0.48660  -0.33308
 Alpha  occ. eigenvalues --   -0.33260
 Alpha virt. eigenvalues --    0.04181   0.04907   0.04996   0.06620   0.07093
 Alpha virt. eigenvalues --    0.09170   0.09827   0.10985   0.12012   0.14369
 Alpha virt. eigenvalues --    0.15131   0.16409   0.16570   0.17955   0.18114
 Alpha virt. eigenvalues --    0.18717   0.19002   0.19213   0.19226   0.20961
 Alpha virt. eigenvalues --    0.20980   0.21843   0.21844   0.22094   0.22901
 Alpha virt. eigenvalues --    0.23986   0.24081   0.24223   0.26155   0.26606
 Alpha virt. eigenvalues --    0.29327   0.30291   0.33930   0.34450   0.39696
 Alpha virt. eigenvalues --    0.40323   0.41250   0.43116   0.43184   0.46855
 Alpha virt. eigenvalues --    0.50006   0.50053   0.51266   0.60581   0.60688
 Alpha virt. eigenvalues --    0.68630   0.70956   0.72579   0.72600   0.74455
 Alpha virt. eigenvalues --    0.74516   0.75782   0.75817   0.76629   0.80666
 Alpha virt. eigenvalues --    0.82096   0.82230   0.83932   0.87281   0.89460
 Alpha virt. eigenvalues --    0.90096   0.94041   0.94173   0.95511   0.95651
 Alpha virt. eigenvalues --    0.97853   1.02065   1.05420   1.05489   1.08885
 Alpha virt. eigenvalues --    1.10042   1.11394   1.12848   1.21168   1.21347
 Alpha virt. eigenvalues --    1.31126   1.34958   1.35258   1.42089   1.42403
 Alpha virt. eigenvalues --    1.54107   1.55493   1.71765   1.76790   1.78932
 Alpha virt. eigenvalues --    1.80138   1.83174   1.84754   1.85717   1.90304
 Alpha virt. eigenvalues --    1.90785   1.91396   1.94075   1.99786   2.05707
 Alpha virt. eigenvalues --    2.06401   2.10224   2.10234   2.12924   2.13743
 Alpha virt. eigenvalues --    2.16423   2.18063   2.29389   2.32390   2.33453
 Alpha virt. eigenvalues --    2.33545   2.36582   2.39756   2.40120   2.60678
 Alpha virt. eigenvalues --    2.61661   2.67196   2.74416   2.75877   2.80399
 Alpha virt. eigenvalues --    2.81614   2.83113   2.93774   2.96138   2.97713
 Alpha virt. eigenvalues --    2.98775   3.01220   3.02813   3.04899   3.05550
 Alpha virt. eigenvalues --    3.08444   3.18021   3.18184   3.23368   3.28538
 Alpha virt. eigenvalues --    3.31702   3.32120   3.37494   3.48472   3.53959
 Alpha virt. eigenvalues --    3.73289   3.77564   3.89104   3.90601   3.92396
 Alpha virt. eigenvalues --    3.98868   4.39593   4.43033   4.47036   4.54091
 Alpha virt. eigenvalues --    4.62064   5.11912  24.75421  25.12158  25.13620
 Alpha virt. eigenvalues --   25.24788  25.26014  25.31275
          Condensed to atoms (all electrons):
              1          2          3          4          5          6
     1  C   11.364718  -5.319950   4.606876  -3.907380   4.235941  -5.066667
     2  C   -5.319950  11.363958  -5.066285   4.235941  -3.906950   4.606601
     3  C    4.606876  -5.066285  11.149017  -5.066667   4.606601  -4.354436
     4  C   -3.907380   4.235941  -5.066667  11.364718  -5.319950   4.606876
     5  C    4.235941  -3.906950   4.606601  -5.319950  11.363958  -5.066285
     6  C   -5.066667   4.606601  -4.354436   4.606876  -5.066285  11.149017
     7  H    0.744366  -0.347702   0.185313  -0.117634   0.163270  -0.351576
     8  H   -0.347715   0.744295  -0.351510   0.163225  -0.117605   0.185320
     9  H    0.214493  -0.398807   0.804931  -0.398819   0.214482  -0.166430
    10  H   -0.117634   0.163270  -0.351576   0.744366  -0.347702   0.185313
    11  H    0.163225  -0.117605   0.185320  -0.347715   0.744295  -0.351510
    12  H   -0.398819   0.214482  -0.166430   0.214493  -0.398807   0.804931
              7          8          9         10         11         12
     1  C    0.744366  -0.347715   0.214493  -0.117634   0.163225  -0.398819
     2  C   -0.347702   0.744295  -0.398807   0.163270  -0.117605   0.214482
     3  C    0.185313  -0.351510   0.804931  -0.351576   0.185320  -0.166430
     4  C   -0.117634   0.163225  -0.398819   0.744366  -0.347715   0.214493
     5  C    0.163270  -0.117605   0.214482  -0.347702   0.744295  -0.398807
     6  C   -0.351576   0.185320  -0.166430   0.185313  -0.351510   0.804931
     7  H    0.596106  -0.024094   0.005560  -0.002092   0.005374  -0.034762
     8  H   -0.024094   0.596091  -0.034749   0.005374  -0.002091   0.005560
     9  H    0.005560  -0.034749   0.624322  -0.034762   0.005560  -0.003870
    10  H   -0.002092   0.005374  -0.034762   0.596106  -0.024094   0.005560
    11  H    0.005374  -0.002091   0.005560  -0.024094   0.596091  -0.034749
    12  H   -0.034762   0.005560  -0.003870   0.005560  -0.034749   0.624322
 Mulliken atomic charges:
              1
     1  C   -0.171455
     2  C   -0.171249
     3  C   -0.181153
     4  C   -0.171455
     5  C   -0.171249
     6  C   -0.181153
     7  H    0.177872
     8  H    0.177898
     9  H    0.168088
    10  H    0.177872
    11  H    0.177898
    12  H    0.168088
 Sum of Mulliken atomic charges =   0.00000
 Mulliken charges with hydrogens summed into heavy atoms:
              1
     1  C    0.006416
     2  C    0.006649
     3  C   -0.013065
     4  C    0.006416
     5  C    0.006649
     6  C   -0.013065
 Sum of Mulliken charges with hydrogens summed into heavy atoms =   0.00000
 Electronic spatial extent (au):  <R**2>=            457.6545
 Charge=              0.0000 electrons
 Dipole moment (field-independent basis, Debye):
    X=              0.0000    Y=              0.0000    Z=              0.0041  Tot=              0.0041
 Quadrupole moment (field-independent basis, Debye-Ang):
   XX=            -32.8336   YY=            -32.6602   ZZ=            -40.6595
   XY=             -0.1372   XZ=              0.0000   YZ=              0.0000
 Traceless Quadrupole moment (field-independent basis, Debye-Ang):
   XX=              2.5508   YY=              2.7242   ZZ=             -5.2750
   XY=             -0.1372   XZ=              0.0000   YZ=              0.0000
 Octapole moment (field-independent basis, Debye-Ang**2):
  XXX=              0.0000  YYY=              0.0000  ZZZ=              0.0390  XYY=              0.0000
  XXY=              0.0000  XXZ=              1.0309  XZZ=              0.0000  YZZ=              0.0000
  YYZ=             -1.1105  XYZ=              1.7077
 Hexadecapole moment (field-independent basis, Debye-Ang**3):
 XXXX=           -277.4336 YYYY=           -277.2606 ZZZZ=            -54.7412 XXXY=             -1.0002
 XXXZ=              0.0000 YYYX=              0.8491 YYYZ=              0.0000 ZZZX=              0.0000
 ZZZY=              0.0000 XXYY=            -93.0463 XXZZ=            -65.5398 YYZZ=            -66.0279
 XXYZ=              0.0000 YYXZ=              0.0000 ZZXY=              0.3840
 N-N= 2.037450520157D+02 E-N=-9.451050635080D+02  KE= 2.314579441603D+02
 Symmetry A    KE= 1.143764192967D+02
 Symmetry B    KE= 1.170815248635D+02
 No NMR shielding tensors so no spin-rotation constants.
 Leave Link  601 at Fri Dec  3 15:01:19 2021, MaxMem=  498073600 cpu:       0.4
 (Enter /apps/software//g09/l9999.exe)
 1\1\GINC-DLT21\SP\RMP2-FC\6-311++G(d,p)\C6H6\ITAMAR\03-Dec-2021\0\\#P 
 MP2/6-311++G** DENSITY=MP2\\Boat-20\\0,1\C,0,-0.0039,1.392615,0.08201\
 C,0,1.207876,0.692948,0.08201\C,0,1.182198,-0.682559,-0.160191\C,0,0.0
 039,-1.392615,0.08201\C,0,-1.207876,-0.692948,0.08201\C,0,-1.182198,0.
 682559,-0.160191\H,0,-0.015236,2.475194,0.136427\H,0,2.151137,1.224307
 ,0.136753\H,0,2.116727,-1.222072,-0.27701\H,0,0.015236,-2.475194,0.136
 427\H,0,-2.151137,-1.224307,0.136753\H,0,-2.116727,1.222072,-0.27701\\
 Version=EM64L-G09RevA.02\State=1-A\HF=-230.7385937\MP2=-231.5712401\RM
 SD=1.623e-09\Dipole=0.,0.,-0.0016276\Quadrupole=1.900308,2.0215469,-3.
 9218549,0.1043764,0.,0.\PG=C02 [X(C6H6)]\\@


 PERICLES, SOPHOCLES,
 PELOPONESIAN WAR,
 FRENCH VERBS, LATIN VERBS
 H2SO4.
 Job cpu time:  0 days  0 hours  2 minutes  8.8 seconds.
 File lengths (MBytes):  RWF=     14 Int=      0 D2E=      0 Chk=      4 Scr=      1
 Normal termination of Gaussian 09 at Fri Dec  3 15:01:19 2021.
