 Entering Gaussian System, Link 0=g09
 Initial command:
 /apps/software//g09/l1.exe /scratch/itamar/2463.cluster.abaxnet/Gau-11378.inp -scrdir=/scratch/itamar/2463.cluster.abaxnet/
 Entering Link 1 = /apps/software//g09/l1.exe PID=     11379.
  
 Copyright (c) 1988,1990,1992,1993,1995,1998,2003,2009, Gaussian, Inc.
                  All Rights Reserved.
  
 This is part of the Gaussian(R) 09 program.  It is based on
 the Gaussian(R) 03 system (copyright 2003, Gaussian, Inc.),
 the Gaussian(R) 98 system (copyright 1998, Gaussian, Inc.),
 the Gaussian(R) 94 system (copyright 1995, Gaussian, Inc.),
 the Gaussian 92(TM) system (copyright 1992, Gaussian, Inc.),
 the Gaussian 90(TM) system (copyright 1990, Gaussian, Inc.),
 the Gaussian 88(TM) system (copyright 1988, Gaussian, Inc.),
 the Gaussian 86(TM) system (copyright 1986, Carnegie Mellon
 University), and the Gaussian 82(TM) system (copyright 1983,
 Carnegie Mellon University). Gaussian is a federally registered
 trademark of Gaussian, Inc.
  
 This software contains proprietary and confidential information,
 including trade secrets, belonging to Gaussian, Inc.
  
 This software is provided under written license and may be
 used, copied, transmitted, or stored only in accord with that
 written license.
  
 The following legend is applicable only to US Government
 contracts under FAR:
  
                    RESTRICTED RIGHTS LEGEND
  
 Use, reproduction and disclosure by the US Government is
 subject to restrictions as set forth in subparagraphs (a)
 and (c) of the Commercial Computer Software - Restricted
 Rights clause in FAR 52.227-19.
  
 Gaussian, Inc.
 340 Quinnipiac St., Bldg. 40, Wallingford CT 06492
  
  
 ---------------------------------------------------------------
 Warning -- This program may not be used in any manner that
 competes with the business of Gaussian, Inc. or will provide
 assistance to any competitor of Gaussian, Inc.  The licensee
 of this program is prohibited from giving any competitor of
 Gaussian, Inc. access to this program.  By using this program,
 the user acknowledges that Gaussian, Inc. is engaged in the
 business of creating and licensing software in the field of
 computational chemistry and represents and warrants to the
 licensee that it is not a competitor of Gaussian, Inc. and that
 it will not use this program in any manner prohibited above.
 ---------------------------------------------------------------
  

 Cite this work as:
 Gaussian 09, Revision A.02,
 M. J. Frisch, G. W. Trucks, H. B. Schlegel, G. E. Scuseria, 
 M. A. Robb, J. R. Cheeseman, G. Scalmani, V. Barone, B. Mennucci, 
 G. A. Petersson, H. Nakatsuji, M. Caricato, X. Li, H. P. Hratchian, 
 A. F. Izmaylov, J. Bloino, G. Zheng, J. L. Sonnenberg, M. Hada, 
 M. Ehara, K. Toyota, R. Fukuda, J. Hasegawa, M. Ishida, T. Nakajima, 
 Y. Honda, O. Kitao, H. Nakai, T. Vreven, J. A. Montgomery, Jr., 
 J. E. Peralta, F. Ogliaro, M. Bearpark, J. J. Heyd, E. Brothers, 
 K. N. Kudin, V. N. Staroverov, R. Kobayashi, J. Normand, 
 K. Raghavachari, A. Rendell, J. C. Burant, S. S. Iyengar, J. Tomasi, 
 M. Cossi, N. Rega, J. M. Millam, M. Klene, J. E. Knox, J. B. Cross, 
 V. Bakken, C. Adamo, J. Jaramillo, R. Gomperts, R. E. Stratmann, 
 O. Yazyev, A. J. Austin, R. Cammi, C. Pomelli, J. W. Ochterski, 
 R. L. Martin, K. Morokuma, V. G. Zakrzewski, G. A. Voth, 
 P. Salvador, J. J. Dannenberg, S. Dapprich, A. D. Daniels, 
 O. Farkas, J. B. Foresman, J. V. Ortiz, J. Cioslowski, 
 and D. J. Fox, Gaussian, Inc., Wallingford CT, 2009.
 
 ******************************************
 Gaussian 09:  EM64L-G09RevA.02 11-Jun-2009
                 3-Dec-2021 
 ******************************************
 %Mem=3800MB
 %NProcShared=6
 Will use up to    6 processors via shared memory.
 %chk=/home/itamar/Aromaticity-test-set/T6-Subst-Complex-in-Benzene/COOCH3/cooch3
 .chk
 -----------------------------
 #P MP2/6-311++G** DENSITY=MP2
 -----------------------------
 1/30=1,38=1/1;
 2/12=2,17=6,18=5,40=1/2;
 3/5=4,6=6,7=1111,11=9,16=1,25=1,30=1,71=1/1,2,3;
 4//1;
 5/5=2,38=5/2;
 8/6=4,10=2/1;
 9/15=1,16=-3/6;
 10/5=1,13=10/2;
 6/7=2,8=2,9=2,10=2,22=2/1;
 99/5=1,9=1/99;
 Leave Link    1 at Fri Dec  3 14:29:26 2021, MaxMem=  498073600 cpu:       0.2
 (Enter /apps/software//g09/l101.exe)
 --------
 X=COOCH3
 --------
 Symbolic Z-matrix:
 Charge =  0 Multiplicity = 1
 6                     2.2126    1.23496   0. 
 6                     1.39159   0.11094   0. 
 6                     0.        0.26249   0. 
 6                    -0.55899   1.54548   0. 
 6                     0.26492   2.66569   0. 
 6                     1.65157   2.51178   0. 
 6                    -0.92881  -0.90365   0. 
 1                    -1.63745   1.64354   0. 
 1                    -0.17179   3.6577    0. 
 1                     2.29384   3.38538   0. 
 1                     3.28994   1.11542   0. 
 1                     1.82012  -0.88234   0. 
 8                    -2.13573  -0.82004   0. 
 8                    -0.2745   -2.08625   0. 
 6                    -1.10394  -3.26144   0. 
 1                    -0.41434  -4.10265   0. 
 1                    -1.73602  -3.28217   0.88872 
 1                    -1.73602  -3.28217  -0.88872 
 
 NAtoms=     18 NQM=     18 NQMF=      0 NMic=      0 NMicF=      0 NTot=     18.
                    Isotopes and Nuclear Properties:
 (Nuclear quadrupole moments (NQMom) in fm**2, nuclear magnetic moments (NMagM)
  in nuclear magnetons)

  Atom         1           2           3           4           5           6           7           8           9          10
 IAtWgt=          12          12          12          12          12          12          12           1           1           1
 AtmWgt=  12.0000000  12.0000000  12.0000000  12.0000000  12.0000000  12.0000000  12.0000000   1.0078250   1.0078250   1.0078250
 NucSpn=           0           0           0           0           0           0           0           1           1           1
 AtZEff=   0.0000000   0.0000000   0.0000000   0.0000000   0.0000000   0.0000000   0.0000000   0.0000000   0.0000000   0.0000000
 NQMom=    0.0000000   0.0000000   0.0000000   0.0000000   0.0000000   0.0000000   0.0000000   0.0000000   0.0000000   0.0000000
 NMagM=    0.0000000   0.0000000   0.0000000   0.0000000   0.0000000   0.0000000   0.0000000   2.7928460   2.7928460   2.7928460

  Atom        11          12          13          14          15          16          17          18
 IAtWgt=           1           1          16          16          12           1           1           1
 AtmWgt=   1.0078250   1.0078250  15.9949146  15.9949146  12.0000000   1.0078250   1.0078250   1.0078250
 NucSpn=           1           1           0           0           0           1           1           1
 AtZEff=   0.0000000   0.0000000   0.0000000   0.0000000   0.0000000   0.0000000   0.0000000   0.0000000
 NQMom=    0.0000000   0.0000000   0.0000000   0.0000000   0.0000000   0.0000000   0.0000000   0.0000000
 NMagM=    2.7928460   2.7928460   0.0000000   0.0000000   0.0000000   2.7928460   2.7928460   2.7928460
 Leave Link  101 at Fri Dec  3 14:29:26 2021, MaxMem=  498073600 cpu:       0.3
 (Enter /apps/software//g09/l202.exe)
                          Input orientation:                          
 ---------------------------------------------------------------------
 Center     Atomic      Atomic             Coordinates (Angstroms)
 Number     Number       Type             X           Y           Z
 ---------------------------------------------------------------------
      1          6           0        2.212600    1.234959    0.000000
      2          6           0        1.391589    0.110944    0.000000
      3          6           0        0.000000    0.262493    0.000000
      4          6           0       -0.558993    1.545477    0.000000
      5          6           0        0.264918    2.665692    0.000000
      6          6           0        1.651568    2.511784    0.000000
      7          6           0       -0.928811   -0.903650    0.000000
      8          1           0       -1.637450    1.643544    0.000000
      9          1           0       -0.171787    3.657705    0.000000
     10          1           0        2.293835    3.385379    0.000000
     11          1           0        3.289940    1.115423    0.000000
     12          1           0        1.820124   -0.882344    0.000000
     13          8           0       -2.135733   -0.820041    0.000000
     14          8           0       -0.274499   -2.086246    0.000000
     15          6           0       -1.103944   -3.261436    0.000000
     16          1           0       -0.414342   -4.102650    0.000000
     17          1           0       -1.736017   -3.282166    0.888720
     18          1           0       -1.736017   -3.282166   -0.888720
 ---------------------------------------------------------------------
                    Distance matrix (angstroms):
                    1          2          3          4          5
     1  C    0.000000
     2  C    1.391930   0.000000
     3  C    2.416876   1.399817   0.000000
     4  C    2.788933   2.421292   1.399472   0.000000
     5  C    2.416705   2.792154   2.417757   1.390579   0.000000
     6  C    1.394647   2.414875   2.790517   2.412536   1.395165
     7  C    3.800278   2.532520   1.490832   2.476891   3.763667
     8  H    3.871670   3.394693   2.142089   1.082907   2.159581
     9  H    3.399265   3.876036   3.399555   2.147425   1.083882
    10  H    2.151954   3.396465   3.874803   3.394682   2.152778
    11  H    1.083951   2.147723   3.398705   3.872884   3.399131
    12  H    2.153372   1.081787   2.150233   3.399193   3.873916
    13  O    4.809472   3.648114   2.394418   2.842848   4.232430
    14  O    4.149225   2.757443   2.364725   3.642849   4.782456
    15  C    5.587220   4.195311   3.692799   4.837704   6.083143
    16  H    5.949025   4.584295   4.384764   5.649979   6.802341
    17  H    6.065131   4.699461   4.045761   5.047905   6.338026
    18  H    6.065131   4.699461   4.045761   5.047905   6.338026
                    6          7          8          9         10
     6  C    0.000000
     7  C    4.280601   0.000000
     8  H    3.401688   2.643930   0.000000
     9  H    2.153546   4.623748   2.490986   0.000000
    10  H    1.084286   5.364813   4.299883   2.480616   0.000000
    11  H    2.152693   4.677020   4.955611   4.294968   2.478896
    12  H    3.398311   2.749018   4.281930   4.957797   4.293933
    13  O    5.044275   1.209815   2.513471   4.889508   6.107915
    14  O    4.985139   1.351539   3.971016   5.744869   6.044421
    15  C    6.397102   2.364281   4.933909   6.981649   7.464921
    16  H    6.929554   3.240105   5.874925   7.764145   7.962713
    17  H    6.770186   2.664347   5.006212   7.169271   7.841281
    18  H    6.770186   2.664347   5.006212   7.169271   7.841281
                   11         12         13         14         15
    11  H    0.000000
    12  H    2.480208   0.000000
    13  O    5.760551   3.956348   0.000000
    14  O    4.791233   2.415952   2.251104   0.000000
    15  C    6.201864   3.769649   2.650471   1.438419   0.000000
    16  H    6.399218   3.919593   3.706576   2.021247   1.087746
    17  H    6.737125   4.381222   2.647953   2.087123   1.090765
    18  H    6.737125   4.381222   2.647953   2.087123   1.090765
                   16         17         18
    16  H    0.000000
    17  H    1.791603   0.000000
    18  H    1.791603   1.777440   0.000000
 Stoichiometry    C8H8O2
 Framework group  CS[SG(C8H6O2),X(H2)]
 Deg. of freedom    32
 Full point group                 CS      NOp   2
 Largest Abelian subgroup         CS      NOp   2
 Largest concise Abelian subgroup CS      NOp   2
                         Standard orientation:                         
 ---------------------------------------------------------------------
 Center     Atomic      Atomic             Coordinates (Angstroms)
 Number     Number       Type             X           Y           Z
 ---------------------------------------------------------------------
      1          6           0        2.212600    1.234960    0.000000
      2          6           0        1.391589    0.110944    0.000000
      3          6           0        0.000000    0.262493    0.000000
      4          6           0       -0.558994    1.545477    0.000000
      5          6           0        0.264917    2.665692    0.000000
      6          6           0        1.651567    2.511785    0.000000
      7          6           0       -0.928811   -0.903650    0.000000
      8          1           0       -1.637451    1.643543    0.000000
      9          1           0       -0.171788    3.657705    0.000000
     10          1           0        2.293834    3.385380    0.000000
     11          1           0        3.289940    1.115424    0.000000
     12          1           0        1.820124   -0.882343    0.000000
     13          8           0       -2.135733   -0.820042    0.000000
     14          8           0       -0.274498   -2.086246    0.000000
     15          6           0       -1.103943   -3.261437    0.000000
     16          1           0       -0.414340   -4.102650    0.000000
     17          1           0       -1.736015   -3.282167    0.888720
     18          1           0       -1.736015   -3.282167   -0.888720
 ---------------------------------------------------------------------
 Rotational constants (GHZ):      3.5242192      0.8396067      0.6809742
 Leave Link  202 at Fri Dec  3 14:29:26 2021, MaxMem=  498073600 cpu:       0.1
 (Enter /apps/software//g09/l301.exe)
 Standard basis: 6-311++G(d,p) (5D, 7F)
 Ernie: Thresh=  0.10000D-02 Tol=  0.10000D-05 Strict=F.
 There are   203 symmetry adapted basis functions of A'  symmetry.
 There are    73 symmetry adapted basis functions of A"  symmetry.
 Integral buffers will be    131072 words long.
 Raffenetti 1 integral format.
 Two-electron integral symmetry is turned on.
   276 basis functions,   432 primitive gaussians,   286 cartesian basis functions
    36 alpha electrons       36 beta electrons
       nuclear repulsion energy       488.9988961375 Hartrees.
 IExCor=    0 DFT=F Ex=HF Corr=None ExCW=0 ScaHFX=  1.000000
 ScaDFX=  1.000000  1.000000  1.000000  1.000000 ScalE2=  1.000000  1.000000
 IRadAn=      0 IRanWt=     -1 IRanGd=            0 ICorTp=0
 NAtoms=   18 NActive=   18 NUniq=   17 SFac= 8.41D-01 NAtFMM=   80 NAOKFM=F Big=F
 Leave Link  301 at Fri Dec  3 14:29:27 2021, MaxMem=  498073600 cpu:       0.2
 (Enter /apps/software//g09/l302.exe)
 NPDir=0 NMtPBC=     1 NCelOv=     1 NCel=       1 NClECP=     1 NCelD=      1
         NCelK=      1 NCelE2=     1 NClLst=     1 CellRange=     0.0.
 One-electron integrals computed using PRISM.
 One-electron integral symmetry used in STVInt
 NBasis=   276 RedAO= T  NBF=   203    73
 NBsUse=   276 1.00D-06 NBFU=   203    73
 Leave Link  302 at Fri Dec  3 14:29:27 2021, MaxMem=  498073600 cpu:       2.2
 (Enter /apps/software//g09/l303.exe)
 DipDrv:  MaxL=1.
 Leave Link  303 at Fri Dec  3 14:29:27 2021, MaxMem=  498073600 cpu:       0.3
 (Enter /apps/software//g09/l401.exe)
 Harris functional with IExCor=  205 diagonalized for initial guess.
 ExpMin= 3.60D-02 ExpMax= 8.59D+03 ExpMxC= 1.30D+03 IAcc=3 IRadAn=         0 AccDes= 0.00D+00
 HarFok:  IExCor=  205 AccDes= 0.00D+00 IRadAn=         0 IDoV= 1
 ScaDFX=  1.000000  1.000000  1.000000  1.000000
 FoFCou: FMM=F IPFlag=           0 FMFlag=      100000 FMFlg1=           0
         NFxFlg=           0 DoJE=T BraDBF=F KetDBF=T FulRan=T
         Omega=  0.000000  0.000000  1.000000  0.000000  0.000000 ICntrl=     500 IOpCl=  0
         NMat0=    1 NMatS0=    1 NMatT0=    0 NMatD0=    1 NMtDS0=    0 NMtDT0=    0
         I1Cent=           4 NGrid=           0.
 Petite list used in FoFCou.
 Harris En= -458.002883435292    
 Initial guess orbital symmetries:
       Occupied  (A') (A') (A') (A') (A') (A') (A') (A') (A') (A')
                 (A') (A') (A') (A') (A') (A') (A') (A') (A') (A')
                 (A') (A') (A') (A") (A') (A') (A') (A") (A') (A")
                 (A') (A') (A") (A') (A") (A")
       Virtual   (A") (A") (A") (A') (A') (A') (A') (A") (A') (A')
                 (A') (A") (A') (A") (A') (A") (A') (A') (A") (A')
                 (A') (A") (A') (A') (A') (A') (A') (A') (A') (A")
                 (A') (A') (A") (A') (A') (A") (A') (A") (A') (A')
                 (A') (A') (A") (A') (A') (A') (A') (A') (A') (A')
                 (A") (A') (A') (A') (A') (A") (A') (A') (A') (A')
                 (A') (A') (A') (A') (A') (A') (A") (A') (A') (A')
                 (A') (A") (A') (A') (A') (A") (A') (A") (A') (A')
                 (A") (A") (A') (A") (A') (A") (A') (A") (A') (A')
                 (A') (A') (A') (A') (A') (A') (A') (A') (A') (A')
                 (A') (A') (A") (A') (A') (A") (A") (A') (A') (A")
                 (A") (A') (A') (A") (A') (A") (A") (A') (A") (A')
                 (A') (A') (A') (A') (A") (A') (A") (A') (A') (A')
                 (A') (A") (A') (A") (A") (A") (A') (A') (A') (A')
                 (A') (A") (A") (A') (A') (A") (A") (A') (A') (A')
                 (A") (A") (A') (A') (A') (A') (A') (A') (A') (A")
                 (A') (A") (A') (A") (A') (A') (A") (A") (A') (A')
                 (A') (A') (A") (A') (A') (A") (A') (A") (A') (A")
                 (A') (A') (A") (A") (A') (A') (A') (A') (A") (A')
                 (A') (A") (A') (A') (A') (A") (A') (A") (A') (A")
                 (A') (A') (A') (A") (A') (A') (A') (A") (A') (A')
                 (A') (A') (A') (A') (A") (A') (A') (A') (A') (A')
                 (A') (A') (A') (A') (A") (A") (A') (A') (A') (A')
                 (A') (A') (A') (A') (A') (A') (A') (A') (A') (A')
 The electronic state of the initial guess is 1-A'.
 Leave Link  401 at Fri Dec  3 14:29:28 2021, MaxMem=  498073600 cpu:       5.3
 (Enter /apps/software//g09/l502.exe)
 Closed shell SCF:
 Requested convergence on RMS density matrix=1.00D-08 within 128 cycles.
 Requested convergence on MAX density matrix=1.00D-06.
 Requested convergence on             energy=1.00D-06.
 No special actions if energy rises.
 Using DIIS extrapolation, IDIIS=  1040.
 Integral symmetry usage will be decided dynamically.
 IEnd=      267754 IEndB=      267754 NGot=   498073600 MDV=   497904569
 LenX=   497904569 LenY=   497822332
 Fock matrices will be formed incrementally for  20 cycles.

 Cycle   1  Pass 0  IDiag  1:
 FoFCou: FMM=F IPFlag=           0 FMFlag=      100000 FMFlg1=           0
         NFxFlg=           0 DoJE=F BraDBF=F KetDBF=F FulRan=T
         Omega=  0.000000  0.000000  1.000000  0.000000  0.000000 ICntrl=       0 IOpCl=  0
         NMat0=    1 NMatS0=    1 NMatT0=    0 NMatD0=    1 NMtDS0=    0 NMtDT0=    0
         I1Cent=           0 NGrid=           0.
 Petite list used in FoFCou.
 E= -457.039736960620    
 DIIS: error= 6.61D-02 at cycle   1 NSaved=   1.
 NSaved= 1 IEnMin= 1 EnMin= -457.039736960620     IErMin= 1 ErrMin= 6.61D-02
 ErrMax= 6.61D-02 EMaxC= 1.00D-01 BMatC= 9.07D-01 BMatP= 9.07D-01
 IDIUse=3 WtCom= 3.39D-01 WtEn= 6.61D-01
 Coeff-Com:  0.100D+01
 Coeff-En:   0.100D+01
 Coeff:      0.100D+01
 Gap=     0.426 Goal=   None    Shift=    0.000
 GapD=    0.426 DampG=2.000 DampE=0.500 DampFc=1.0000 IDamp=-1.
 RMSDP=2.56D-02 MaxDP=2.59D+00              OVMax= 1.49D-01

 Cycle   2  Pass 0  IDiag  1:
 RMSU=  1.76D-02    CP:  9.22D-01
 E= -457.387903383613     Delta-E=       -0.348166422993 Rises=F Damp=F
 DIIS: error= 2.07D-02 at cycle   2 NSaved=   2.
 NSaved= 2 IEnMin= 2 EnMin= -457.387903383613     IErMin= 2 ErrMin= 2.07D-02
 ErrMax= 2.07D-02 EMaxC= 1.00D-01 BMatC= 9.23D-02 BMatP= 9.07D-01
 IDIUse=3 WtCom= 7.93D-01 WtEn= 2.07D-01
 Coeff-Com:  0.160D+00 0.840D+00
 Coeff-En:   0.000D+00 0.100D+01
 Coeff:      0.127D+00 0.873D+00
 Gap=     0.416 Goal=   None    Shift=    0.000
 RMSDP=1.50D-02 MaxDP=1.18D+00 DE=-3.48D-01 OVMax= 6.43D-02

 Cycle   3  Pass 0  IDiag  1:
 RMSU=  5.09D-03    CP:  8.46D-01  5.33D-01
 E= -457.446689567597     Delta-E=       -0.058786183983 Rises=F Damp=F
 DIIS: error= 9.86D-03 at cycle   3 NSaved=   3.
 NSaved= 3 IEnMin= 3 EnMin= -457.446689567597     IErMin= 3 ErrMin= 9.86D-03
 ErrMax= 9.86D-03 EMaxC= 1.00D-01 BMatC= 2.00D-02 BMatP= 9.23D-02
 IDIUse=3 WtCom= 9.01D-01 WtEn= 9.86D-02
 Coeff-Com: -0.148D-01 0.298D+00 0.717D+00
 Coeff-En:   0.000D+00 0.000D+00 0.100D+01
 Coeff:     -0.133D-01 0.268D+00 0.745D+00
 Gap=     0.397 Goal=   None    Shift=    0.000
 RMSDP=3.80D-03 MaxDP=3.07D-01 DE=-5.88D-02 OVMax= 3.36D-02

 Cycle   4  Pass 0  IDiag  1:
 RMSU=  1.24D-03    CP:  8.34D-01  6.47D-01  7.85D-01
 E= -457.460685090851     Delta-E=       -0.013995523254 Rises=F Damp=F
 DIIS: error= 2.79D-03 at cycle   4 NSaved=   4.
 NSaved= 4 IEnMin= 4 EnMin= -457.460685090851     IErMin= 4 ErrMin= 2.79D-03
 ErrMax= 2.79D-03 EMaxC= 1.00D-01 BMatC= 1.05D-03 BMatP= 2.00D-02
 IDIUse=3 WtCom= 9.72D-01 WtEn= 2.79D-02
 Coeff-Com: -0.958D-02 0.599D-01 0.259D+00 0.691D+00
 Coeff-En:   0.000D+00 0.000D+00 0.000D+00 0.100D+01
 Coeff:     -0.931D-02 0.582D-01 0.252D+00 0.699D+00
 Gap=     0.384 Goal=   None    Shift=    0.000
 RMSDP=1.49D-03 MaxDP=1.12D-01 DE=-1.40D-02 OVMax= 7.19D-03

 Cycle   5  Pass 0  IDiag  1:
 RMSU=  5.75D-04    CP:  8.29D-01  6.70D-01  8.86D-01  5.70D-01
 E= -457.461541093828     Delta-E=       -0.000856002977 Rises=F Damp=F
 DIIS: error= 6.56D-04 at cycle   5 NSaved=   5.
 NSaved= 5 IEnMin= 5 EnMin= -457.461541093828     IErMin= 5 ErrMin= 6.56D-04
 ErrMax= 6.56D-04 EMaxC= 1.00D-01 BMatC= 4.25D-05 BMatP= 1.05D-03
 IDIUse=3 WtCom= 9.93D-01 WtEn= 6.56D-03
 Coeff-Com:  0.427D-03-0.189D-01-0.426D-01 0.700D-01 0.991D+00
 Coeff-En:   0.000D+00 0.000D+00 0.000D+00 0.000D+00 0.100D+01
 Coeff:      0.424D-03-0.188D-01-0.423D-01 0.695D-01 0.991D+00
 Gap=     0.385 Goal=   None    Shift=    0.000
 RMSDP=3.26D-04 MaxDP=2.82D-02 DE=-8.56D-04 OVMax= 3.89D-03

 Cycle   6  Pass 0  IDiag  1:
 RMSU=  1.20D-04    CP:  8.27D-01  6.66D-01  9.13D-01  5.73D-01  1.11D+00
 E= -457.461619199058     Delta-E=       -0.000078105231 Rises=F Damp=F
 DIIS: error= 2.46D-04 at cycle   6 NSaved=   6.
 NSaved= 6 IEnMin= 6 EnMin= -457.461619199058     IErMin= 6 ErrMin= 2.46D-04
 ErrMax= 2.46D-04 EMaxC= 1.00D-01 BMatC= 5.55D-06 BMatP= 4.25D-05
 IDIUse=3 WtCom= 9.98D-01 WtEn= 2.46D-03
 Coeff-Com:  0.929D-03-0.822D-02-0.295D-01-0.747D-01 0.734D-01 0.104D+01
 Coeff-En:   0.000D+00 0.000D+00 0.000D+00 0.000D+00 0.000D+00 0.100D+01
 Coeff:      0.927D-03-0.820D-02-0.295D-01-0.745D-01 0.732D-01 0.104D+01
 Gap=     0.385 Goal=   None    Shift=    0.000
 RMSDP=1.72D-04 MaxDP=1.42D-02 DE=-7.81D-05 OVMax= 1.47D-03

 Cycle   7  Pass 0  IDiag  1:
 RMSU=  3.84D-05    CP:  8.27D-01  6.67D-01  9.25D-01  5.51D-01  1.24D+00
                    CP:  1.12D+00
 E= -457.461633253078     Delta-E=       -0.000014054020 Rises=F Damp=F
 DIIS: error= 9.49D-05 at cycle   7 NSaved=   7.
 NSaved= 7 IEnMin= 7 EnMin= -457.461633253078     IErMin= 7 ErrMin= 9.49D-05
 ErrMax= 9.49D-05 EMaxC= 1.00D-01 BMatC= 9.38D-07 BMatP= 5.55D-06
 IDIUse=1 WtCom= 1.00D+00 WtEn= 0.00D+00
 Coeff-Com:  0.554D-04 0.142D-02 0.362D-02-0.180D-01-0.979D-01 0.790D-01
 Coeff-Com:  0.103D+01
 Coeff:      0.554D-04 0.142D-02 0.362D-02-0.180D-01-0.979D-01 0.790D-01
 Coeff:      0.103D+01
 Gap=     0.385 Goal=   None    Shift=    0.000
 RMSDP=7.72D-05 MaxDP=7.75D-03 DE=-1.41D-05 OVMax= 7.35D-04

 Cycle   8  Pass 0  IDiag  1:
 RMSU=  1.68D-05    CP:  8.26D-01  6.66D-01  9.30D-01  5.39D-01  1.28D+00
                    CP:  1.19D+00  9.54D-01
 E= -457.461636084070     Delta-E=       -0.000002830992 Rises=F Damp=F
 DIIS: error= 7.39D-05 at cycle   8 NSaved=   8.
 NSaved= 8 IEnMin= 8 EnMin= -457.461636084070     IErMin= 8 ErrMin= 7.39D-05
 ErrMax= 7.39D-05 EMaxC= 1.00D-01 BMatC= 1.98D-07 BMatP= 9.38D-07
 IDIUse=1 WtCom= 1.00D+00 WtEn= 0.00D+00
 Coeff-Com: -0.202D-03 0.195D-02 0.706D-02 0.117D-01-0.222D-01-0.205D+00
 Coeff-Com: -0.335D-02 0.121D+01
 Coeff:     -0.202D-03 0.195D-02 0.706D-02 0.117D-01-0.222D-01-0.205D+00
 Coeff:     -0.335D-02 0.121D+01
 Gap=     0.385 Goal=   None    Shift=    0.000
 RMSDP=3.31D-05 MaxDP=2.82D-03 DE=-2.83D-06 OVMax= 5.25D-04

 Cycle   9  Pass 0  IDiag  1:
 RMSU=  5.81D-06    CP:  8.26D-01  6.66D-01  9.32D-01  5.35D-01  1.29D+00
                    CP:  1.21D+00  1.09D+00  1.38D+00
 E= -457.461636908946     Delta-E=       -0.000000824876 Rises=F Damp=F
 DIIS: error= 2.47D-05 at cycle   9 NSaved=   9.
 NSaved= 9 IEnMin= 9 EnMin= -457.461636908946     IErMin= 9 ErrMin= 2.47D-05
 ErrMax= 2.47D-05 EMaxC= 1.00D-01 BMatC= 3.06D-08 BMatP= 1.98D-07
 IDIUse=1 WtCom= 1.00D+00 WtEn= 0.00D+00
 Coeff-Com: -0.362D-04 0.755D-04 0.476D-03 0.384D-02 0.119D-01-0.295D-01
 Coeff-Com: -0.181D+00 0.182D+00 0.101D+01
 Coeff:     -0.362D-04 0.755D-04 0.476D-03 0.384D-02 0.119D-01-0.295D-01
 Coeff:     -0.181D+00 0.182D+00 0.101D+01
 Gap=     0.385 Goal=   None    Shift=    0.000
 RMSDP=1.03D-05 MaxDP=1.05D-03 DE=-8.25D-07 OVMax= 2.24D-04

 Cycle  10  Pass 0  IDiag  1:
 RMSU=  3.48D-06    CP:  8.26D-01  6.66D-01  9.33D-01  5.35D-01  1.29D+00
                    CP:  1.20D+00  1.08D+00  1.51D+00  1.31D+00
 E= -457.461637027233     Delta-E=       -0.000000118287 Rises=F Damp=F
 DIIS: error= 1.24D-05 at cycle  10 NSaved=  10.
 NSaved=10 IEnMin=10 EnMin= -457.461637027233     IErMin=10 ErrMin= 1.24D-05
 ErrMax= 1.24D-05 EMaxC= 1.00D-01 BMatC= 5.03D-09 BMatP= 3.06D-08
 IDIUse=1 WtCom= 1.00D+00 WtEn= 0.00D+00
 Coeff-Com:  0.363D-04-0.346D-03-0.126D-02-0.258D-02 0.177D-02 0.426D-01
 Coeff-Com:  0.118D-01-0.230D+00-0.101D+00 0.128D+01
 Coeff:      0.363D-04-0.346D-03-0.126D-02-0.258D-02 0.177D-02 0.426D-01
 Coeff:      0.118D-01-0.230D+00-0.101D+00 0.128D+01
 Gap=     0.385 Goal=   None    Shift=    0.000
 RMSDP=4.87D-06 MaxDP=4.83D-04 DE=-1.18D-07 OVMax= 1.24D-04

 Initial convergence to 1.0D-05 achieved.  Increase integral accuracy.
 Cycle  11  Pass 1  IDiag  1:
 E= -457.461637053061     Delta-E=       -0.000000025828 Rises=F Damp=F
 DIIS: error= 4.31D-06 at cycle   1 NSaved=   1.
 NSaved= 1 IEnMin= 1 EnMin= -457.461637053061     IErMin= 1 ErrMin= 4.31D-06
 ErrMax= 4.31D-06 EMaxC= 1.00D-01 BMatC= 8.56D-10 BMatP= 8.56D-10
 IDIUse=1 WtCom= 1.00D+00 WtEn= 0.00D+00
 Coeff-Com:  0.100D+01
 Coeff:      0.100D+01
 Gap=     0.385 Goal=   None    Shift=    0.000
 RMSDP=4.87D-06 MaxDP=4.83D-04 DE=-2.58D-08 OVMax= 2.73D-05

 Cycle  12  Pass 1  IDiag  1:
 RMSU=  8.73D-07    CP:  1.00D+00
 E= -457.461637055776     Delta-E=       -0.000000002715 Rises=F Damp=F
 DIIS: error= 2.80D-06 at cycle   2 NSaved=   2.
 NSaved= 2 IEnMin= 2 EnMin= -457.461637055776     IErMin= 2 ErrMin= 2.80D-06
 ErrMax= 2.80D-06 EMaxC= 1.00D-01 BMatC= 3.54D-10 BMatP= 8.56D-10
 IDIUse=1 WtCom= 1.00D+00 WtEn= 0.00D+00
 Coeff-Com:  0.113D+00 0.887D+00
 Coeff:      0.113D+00 0.887D+00
 Gap=     0.385 Goal=   None    Shift=    0.000
 RMSDP=6.02D-07 MaxDP=4.19D-05 DE=-2.71D-09 OVMax= 1.81D-05

 Cycle  13  Pass 1  IDiag  1:
 RMSU=  2.44D-07    CP:  1.00D+00  1.34D+00
 E= -457.461637056849     Delta-E=       -0.000000001073 Rises=F Damp=F
 DIIS: error= 2.01D-06 at cycle   3 NSaved=   3.
 NSaved= 3 IEnMin= 3 EnMin= -457.461637056849     IErMin= 3 ErrMin= 2.01D-06
 ErrMax= 2.01D-06 EMaxC= 1.00D-01 BMatC= 1.56D-10 BMatP= 3.54D-10
 IDIUse=1 WtCom= 1.00D+00 WtEn= 0.00D+00
 Coeff-Com: -0.668D+00-0.517D-01 0.172D+01
 Coeff:     -0.668D+00-0.517D-01 0.172D+01
 Gap=     0.385 Goal=   None    Shift=    0.000
 RMSDP=1.08D-06 MaxDP=7.58D-05 DE=-1.07D-09 OVMax= 2.59D-05

 Cycle  14  Pass 1  IDiag  1:
 RMSU=  1.57D-07    CP:  1.00D+00  2.08D+00  1.59D+00
 E= -457.461637057783     Delta-E=       -0.000000000935 Rises=F Damp=F
 DIIS: error= 3.61D-07 at cycle   4 NSaved=   4.
 NSaved= 4 IEnMin= 4 EnMin= -457.461637057783     IErMin= 4 ErrMin= 3.61D-07
 ErrMax= 3.61D-07 EMaxC= 1.00D-01 BMatC= 5.93D-12 BMatP= 1.56D-10
 IDIUse=1 WtCom= 1.00D+00 WtEn= 0.00D+00
 Coeff-Com: -0.371D-01-0.474D-01 0.105D+00 0.980D+00
 Coeff:     -0.371D-01-0.474D-01 0.105D+00 0.980D+00
 Gap=     0.385 Goal=   None    Shift=    0.000
 RMSDP=1.50D-07 MaxDP=9.74D-06 DE=-9.35D-10 OVMax= 3.12D-06

 Cycle  15  Pass 1  IDiag  1:
 RMSU=  7.89D-08    CP:  1.00D+00  2.13D+00  1.53D+00  1.05D+00
 E= -457.461637057810     Delta-E=       -0.000000000027 Rises=F Damp=F
 DIIS: error= 1.45D-07 at cycle   5 NSaved=   5.
 NSaved= 5 IEnMin= 5 EnMin= -457.461637057810     IErMin= 5 ErrMin= 1.45D-07
 ErrMax= 1.45D-07 EMaxC= 1.00D-01 BMatC= 1.87D-12 BMatP= 5.93D-12
 IDIUse=1 WtCom= 1.00D+00 WtEn= 0.00D+00
 Coeff-Com:  0.195D+00 0.937D-03-0.500D+00 0.125D+00 0.118D+01
 Coeff:      0.195D+00 0.937D-03-0.500D+00 0.125D+00 0.118D+01
 Gap=     0.385 Goal=   None    Shift=    0.000
 RMSDP=9.56D-08 MaxDP=1.24D-05 DE=-2.67D-11 OVMax= 1.97D-06

 Cycle  16  Pass 1  IDiag  1:
 RMSU=  1.87D-08    CP:  1.00D+00  2.11D+00  1.48D+00  1.25D+00  1.28D+00
 E= -457.461637057803     Delta-E=        0.000000000007 Rises=F Damp=F
 DIIS: error= 3.55D-08 at cycle   6 NSaved=   6.
 NSaved= 6 IEnMin= 5 EnMin= -457.461637057810     IErMin= 6 ErrMin= 3.55D-08
 ErrMax= 3.55D-08 EMaxC= 1.00D-01 BMatC= 1.36D-13 BMatP= 1.87D-12
 IDIUse=1 WtCom= 1.00D+00 WtEn= 0.00D+00
 Coeff-Com:  0.136D-01 0.154D-02-0.347D-01-0.668D-01 0.242D-01 0.106D+01
 Coeff:      0.136D-01 0.154D-02-0.347D-01-0.668D-01 0.242D-01 0.106D+01
 Gap=     0.385 Goal=   None    Shift=    0.000
 RMSDP=2.37D-08 MaxDP=2.12D-06 DE= 7.16D-12 OVMax= 4.32D-07

 Cycle  17  Pass 1  IDiag  1:
 RMSU=  5.91D-09    CP:  1.00D+00  2.11D+00  1.48D+00  1.25D+00  1.29D+00
                    CP:  1.50D+00
 E= -457.461637057810     Delta-E=       -0.000000000007 Rises=F Damp=F
 DIIS: error= 1.57D-08 at cycle   7 NSaved=   7.
 NSaved= 7 IEnMin= 5 EnMin= -457.461637057810     IErMin= 7 ErrMin= 1.57D-08
 ErrMax= 1.57D-08 EMaxC= 1.00D-01 BMatC= 2.61D-14 BMatP= 1.36D-13
 IDIUse=1 WtCom= 1.00D+00 WtEn= 0.00D+00
 Coeff-Com: -0.423D-01-0.761D-03 0.111D+00-0.313D-01-0.260D+00 0.114D+00
 Coeff-Com:  0.111D+01
 Coeff:     -0.423D-01-0.761D-03 0.111D+00-0.313D-01-0.260D+00 0.114D+00
 Coeff:      0.111D+01
 Gap=     0.385 Goal=   None    Shift=    0.000
 RMSDP=1.52D-08 MaxDP=1.70D-06 DE=-7.16D-12 OVMax= 1.74D-07

 Cycle  18  Pass 1  IDiag  1:
 RMSU=  2.80D-09    CP:  1.00D+00  2.11D+00  1.47D+00  1.24D+00  1.30D+00
                    CP:  1.83D+00  1.42D+00
 E= -457.461637057796     Delta-E=        0.000000000014 Rises=F Damp=F
 DIIS: error= 4.12D-09 at cycle   8 NSaved=   8.
 NSaved= 8 IEnMin= 5 EnMin= -457.461637057810     IErMin= 8 ErrMin= 4.12D-09
 ErrMax= 4.12D-09 EMaxC= 1.00D-01 BMatC= 1.86D-15 BMatP= 2.61D-14
 IDIUse=1 WtCom= 1.00D+00 WtEn= 0.00D+00
 Coeff-Com: -0.206D-02-0.555D-03 0.580D-02 0.568D-02-0.766D-02-0.989D-01
 Coeff-Com: -0.115D-02 0.110D+01
 Coeff:     -0.206D-02-0.555D-03 0.580D-02 0.568D-02-0.766D-02-0.989D-01
 Coeff:     -0.115D-02 0.110D+01
 Gap=     0.385 Goal=   None    Shift=    0.000
 RMSDP=3.16D-09 MaxDP=3.05D-07 DE= 1.44D-11 OVMax= 4.21D-08

 SCF Done:  E(RHF) =  -457.461637058     A.U. after   18 cycles
             Convg  =    0.3155D-08             -V/T =  2.0013
 KE= 4.568737296105D+02 PE=-2.049084318104D+03 EE= 6.457500552986D+02
 Leave Link  502 at Fri Dec  3 14:31:18 2021, MaxMem=  498073600 cpu:     658.1
 (Enter /apps/software//g09/l801.exe)
 ExpMin= 3.60D-02 ExpMax= 8.59D+03 ExpMxC= 1.30D+03 IAcc=3 IRadAn=         5 AccDes= 0.00D+00
 HarFok:  IExCor=  205 AccDes= 0.00D+00 IRadAn=         5 IDoV=-2
 ScaDFX=  1.000000  1.000000  1.000000  1.000000
 Largest valence mixing into a core orbital is  1.42D-04
 Largest core mixing into a valence orbital is  4.14D-05
 Range of M.O.s used for correlation:    11   276
 NBasis=   276 NAE=    36 NBE=    36 NFC=    10 NFV=     0
 NROrb=    266 NOA=    26 NOB=    26 NVA=   240 NVB=   240

 **** Warning!!: The largest alpha MO coefficient is  0.29126923D+03

 Leave Link  801 at Fri Dec  3 14:31:18 2021, MaxMem=  498073600 cpu:       1.8
 (Enter /apps/software//g09/l906.exe)
 Frozen-core derivative calculation, NFC=  10 NFV=   0.
 FulOut=F Deriv=T AODrv=F NAtomX=    18
   MMem=          46  MDisk=          26 MDiskD=          26
  W3Min=     2841696 MinDsk=     3700361 NBas6D=         286
 NBas2D=       41455    NTT=       41041    LW2=     2040000
    MDV=   497157898 MDiskM=       24046 NBas2p=       36243
 Fully direct method using O(ONN) memory.
 IMap=   1   2   3   4   5   6   7   8   9  10  11  12  13  14  15  16  17  18  19  20
 IMap=  21  22  23  24  25  26  27  28  29  30  31  32  33  34  35  36
 JobTyp=1 Pass  1:  I=  11 to  16 NPSUse=  6 ParTrn=T ParDer=T DoDerP=T.
 JobTyp=1 Pass  2:  I=  17 to  22 NPSUse=  6 ParTrn=T ParDer=T DoDerP=T.
 JobTyp=1 Pass  3:  I=  23 to  28 NPSUse=  6 ParTrn=T ParDer=T DoDerP=T.
 JobTyp=1 Pass  4:  I=  29 to  34 NPSUse=  6 ParTrn=T ParDer=T DoDerP=T.
 JobTyp=1 Pass  5:  I=  35 to  36 NPSUse=  6 ParTrn=T ParDer=T DoDerP=T.
 Spin components of T(2) and E(2):
     alpha-alpha T2 =       0.6874035760D-01 E2=     -0.1984005311D+00
     alpha-beta  T2 =       0.3611995704D+00 E2=     -0.1100760788D+01
     beta-beta   T2 =       0.6874035760D-01 E2=     -0.1984005311D+00
 The integrals were generated   5 times.
 ANorm=    0.1224205982D+01
 E2 =    -0.1497561850D+01 EUMP2 =    -0.45895919890806D+03
 Leave Link  906 at Fri Dec  3 14:34:13 2021, MaxMem=  498073600 cpu:    1045.7
 (Enter /apps/software//g09/l1002.exe)
 Minotr:  Closed shell wavefunction.
          Computing MP2/KS-MP2 derivatives.
          Using Z-Vector for PSCF gradient.
          Skipping F1 and S1 gradient terms here.
          Frozen-core window.
          Direct CPHF calculation.
          Differentiating once with respect to electric field.
                with respect to dipole field.
          Electric field/nuclear overlap derivatives assumed to be zero.
          Using symmetry in CPHF.
          Requested convergence is 1.0D-10 RMS, and 1.0D-09 maximum.
          NewPWx=F KeepS1=T KeepF1=T KeepIn=T MapXYZ=F SortEE=F KeepMc=T.
          MDV=     498073452 using IRadAn=       0.
          Solving linear equations separately, MaxMat=       0.
          There are     1 degrees of freedom in the 1st order CPHF.  IDoFFX=0.
 Petite list used in FoFDir.
 MinBra= 0 MaxBra= 2 Meth= 1.
 IRaf=       0 NMat=   1 IRICut=       1 DoRegI=T DoRafI=F ISym2E= 1 JSym2E=1.
 LinEq1:  Iter=  0 NonCon=     1 RMS=3.58D-03 Max=7.03D-02
 AX will form     1 AO Fock derivatives at one time.
 LinEq1:  Iter=  1 NonCon=     1 RMS=9.35D-04 Max=1.70D-02
 LinEq1:  Iter=  2 NonCon=     1 RMS=3.91D-04 Max=1.37D-02
 LinEq1:  Iter=  3 NonCon=     1 RMS=1.92D-04 Max=7.96D-03
 LinEq1:  Iter=  4 NonCon=     1 RMS=7.76D-05 Max=2.61D-03
 LinEq1:  Iter=  5 NonCon=     1 RMS=3.20D-05 Max=9.61D-04
 LinEq1:  Iter=  6 NonCon=     1 RMS=1.16D-05 Max=2.12D-04
 LinEq1:  Iter=  7 NonCon=     1 RMS=3.21D-06 Max=5.90D-05
 LinEq1:  Iter=  8 NonCon=     1 RMS=1.21D-06 Max=3.15D-05
 LinEq1:  Iter=  9 NonCon=     1 RMS=4.14D-07 Max=1.04D-05
 LinEq1:  Iter= 10 NonCon=     1 RMS=1.27D-07 Max=3.34D-06
 LinEq1:  Iter= 11 NonCon=     1 RMS=4.31D-08 Max=7.75D-07
 LinEq1:  Iter= 12 NonCon=     1 RMS=1.02D-08 Max=3.99D-07
 LinEq1:  Iter= 13 NonCon=     1 RMS=3.63D-09 Max=1.51D-07
 LinEq1:  Iter= 14 NonCon=     1 RMS=1.47D-09 Max=6.28D-08
 LinEq1:  Iter= 15 NonCon=     1 RMS=4.47D-10 Max=1.35D-08
 LinEq1:  Iter= 16 NonCon=     1 RMS=1.56D-10 Max=4.05D-09
 LinEq1:  Iter= 17 NonCon=     0 RMS=4.52D-11 Max=7.99D-10
 Linear equations converged to 1.000D-10 1.000D-09 after    17 iterations.
 End of Minotr Frequency-dependent properties file   721 does not exist.
 End of Minotr Frequency-dependent properties file   722 does not exist.
 Leave Link 1002 at Fri Dec  3 14:36:21 2021, MaxMem=  498073600 cpu:     768.9
 (Enter /apps/software//g09/l601.exe)
 Copying SCF densities to generalized density rwf, IOpCl= 0 IROHF=0.

 **********************************************************************

            Population analysis using the MP2 density.

 **********************************************************************

 Orbital symmetries:
       Occupied  (A') (A') (A') (A') (A') (A') (A') (A') (A') (A')
                 (A') (A') (A') (A') (A') (A') (A') (A') (A') (A')
                 (A') (A') (A") (A') (A') (A') (A') (A") (A') (A')
                 (A") (A') (A") (A') (A") (A")
       Virtual   (A') (A') (A') (A') (A') (A") (A") (A') (A') (A")
                 (A") (A') (A') (A") (A') (A") (A") (A') (A') (A')
                 (A") (A') (A') (A') (A') (A') (A') (A') (A") (A')
                 (A") (A") (A') (A") (A') (A') (A') (A') (A') (A")
                 (A') (A') (A') (A') (A') (A") (A') (A') (A") (A')
                 (A') (A") (A') (A') (A') (A') (A') (A') (A') (A')
                 (A') (A') (A') (A') (A') (A') (A") (A') (A') (A')
                 (A') (A") (A') (A') (A') (A') (A") (A") (A') (A')
                 (A") (A") (A') (A") (A") (A') (A") (A') (A') (A')
                 (A') (A') (A') (A') (A') (A') (A') (A') (A') (A')
                 (A') (A') (A') (A') (A") (A') (A') (A") (A') (A")
                 (A') (A') (A") (A") (A') (A") (A") (A") (A") (A')
                 (A') (A') (A') (A") (A') (A') (A") (A') (A") (A')
                 (A') (A') (A") (A') (A") (A") (A') (A') (A') (A')
                 (A") (A') (A") (A') (A') (A") (A") (A') (A') (A')
                 (A') (A") (A") (A') (A') (A') (A') (A') (A') (A")
                 (A') (A") (A") (A') (A') (A') (A") (A") (A') (A')
                 (A') (A') (A") (A') (A") (A') (A') (A') (A') (A')
                 (A') (A') (A") (A') (A') (A") (A') (A") (A") (A')
                 (A') (A') (A") (A") (A') (A") (A') (A") (A') (A")
                 (A') (A') (A") (A') (A') (A") (A') (A') (A') (A')
                 (A') (A') (A') (A') (A") (A') (A') (A') (A') (A')
                 (A') (A') (A') (A') (A") (A") (A') (A') (A') (A')
                 (A') (A') (A') (A') (A') (A') (A') (A') (A') (A')
 The electronic state is 1-A'.
 Alpha  occ. eigenvalues --  -20.60476 -20.54519 -11.38837 -11.28921 -11.25660
 Alpha  occ. eigenvalues --  -11.25517 -11.25450 -11.25211 -11.24687 -11.24615
 Alpha  occ. eigenvalues --   -1.46303  -1.36121  -1.16943  -1.05245  -1.02986
 Alpha  occ. eigenvalues --   -0.97447  -0.86690  -0.83953  -0.78022  -0.74028
 Alpha  occ. eigenvalues --   -0.68792  -0.67403  -0.67201  -0.63477  -0.63003
 Alpha  occ. eigenvalues --   -0.60252  -0.58645  -0.56195  -0.53428  -0.52455
 Alpha  occ. eigenvalues --   -0.50702  -0.50485  -0.46512  -0.45410  -0.35178
 Alpha  occ. eigenvalues --   -0.34758
 Alpha virt. eigenvalues --    0.03697   0.04329   0.05001   0.06072   0.06859
 Alpha virt. eigenvalues --    0.07289   0.07937   0.08214   0.08741   0.10493
 Alpha virt. eigenvalues --    0.11600   0.12617   0.13190   0.14025   0.14587
 Alpha virt. eigenvalues --    0.15283   0.16410   0.16534   0.17323   0.17731
 Alpha virt. eigenvalues --    0.18259   0.18391   0.18590   0.18841   0.20763
 Alpha virt. eigenvalues --    0.21166   0.21362   0.21402   0.21798   0.22362
 Alpha virt. eigenvalues --    0.22391   0.22868   0.24879   0.24965   0.25197
 Alpha virt. eigenvalues --    0.26827   0.27325   0.28963   0.29823   0.30429
 Alpha virt. eigenvalues --    0.30985   0.31826   0.32897   0.33601   0.35157
 Alpha virt. eigenvalues --    0.37038   0.37057   0.37507   0.39588   0.39618
 Alpha virt. eigenvalues --    0.40629   0.40732   0.40866   0.41912   0.43073
 Alpha virt. eigenvalues --    0.43732   0.44400   0.46108   0.47694   0.47796
 Alpha virt. eigenvalues --    0.48048   0.49625   0.51038   0.54527   0.55819
 Alpha virt. eigenvalues --    0.58067   0.58137   0.63577   0.65765   0.67618
 Alpha virt. eigenvalues --    0.70910   0.71743   0.71819   0.72901   0.73562
 Alpha virt. eigenvalues --    0.74150   0.74909   0.76289   0.78941   0.79426
 Alpha virt. eigenvalues --    0.79904   0.81458   0.83557   0.84381   0.84729
 Alpha virt. eigenvalues --    0.84739   0.88944   0.90085   0.92160   0.93291
 Alpha virt. eigenvalues --    0.94057   0.94861   0.96524   0.99628   1.00327
 Alpha virt. eigenvalues --    1.02365   1.03341   1.04987   1.07728   1.08286
 Alpha virt. eigenvalues --    1.11577   1.12389   1.13113   1.14741   1.18290
 Alpha virt. eigenvalues --    1.19364   1.20405   1.23118   1.24562   1.25892
 Alpha virt. eigenvalues --    1.26508   1.27594   1.31153   1.31403   1.32853
 Alpha virt. eigenvalues --    1.35605   1.37727   1.39611   1.43638   1.46404
 Alpha virt. eigenvalues --    1.49950   1.55568   1.56450   1.62973   1.63758
 Alpha virt. eigenvalues --    1.66735   1.69783   1.75472   1.77064   1.77386
 Alpha virt. eigenvalues --    1.79071   1.79345   1.80366   1.81143   1.82585
 Alpha virt. eigenvalues --    1.83603   1.89049   1.91110   1.91619   1.94942
 Alpha virt. eigenvalues --    1.97236   1.98497   1.98606   1.99842   2.03017
 Alpha virt. eigenvalues --    2.03170   2.04697   2.10101   2.11152   2.13548
 Alpha virt. eigenvalues --    2.19854   2.22368   2.22913   2.23731   2.24221
 Alpha virt. eigenvalues --    2.25659   2.26748   2.31612   2.33203   2.33526
 Alpha virt. eigenvalues --    2.36289   2.37087   2.40596   2.43936   2.50680
 Alpha virt. eigenvalues --    2.54594   2.60713   2.65087   2.73879   2.76056
 Alpha virt. eigenvalues --    2.79175   2.81210   2.81665   2.82052   2.85080
 Alpha virt. eigenvalues --    2.87781   2.92995   2.95951   2.97414   2.98647
 Alpha virt. eigenvalues --    3.00965   3.01573   3.01977   3.04898   3.05353
 Alpha virt. eigenvalues --    3.05729   3.09089   3.17771   3.18319   3.19596
 Alpha virt. eigenvalues --    3.20294   3.23779   3.24263   3.28477   3.29206
 Alpha virt. eigenvalues --    3.31666   3.32136   3.42976   3.43099   3.47722
 Alpha virt. eigenvalues --    3.49679   3.60789   3.61092   3.64612   3.69222
 Alpha virt. eigenvalues --    3.78347   3.78824   3.79976   3.91077   3.94173
 Alpha virt. eigenvalues --    3.97111   4.03025   4.07486   4.15555   4.17198
 Alpha virt. eigenvalues --    4.26666   4.40277   4.44188   4.49389   4.54768
 Alpha virt. eigenvalues --    4.56922   4.61300   4.79421   5.27144   5.57092
 Alpha virt. eigenvalues --    5.62340   5.80160   5.94553   6.24403   6.43646
 Alpha virt. eigenvalues --   24.76232  24.99686  25.08908  25.11182  25.11740
 Alpha virt. eigenvalues --   25.22295  25.25707  25.35027  51.61249  51.75488
          Condensed to atoms (all electrons):
              1          2          3          4          5          6
     1  C   17.416037 -14.550789   6.160301  -2.592165   4.372954  -5.012659
     2  C  -14.550789  34.609252 -10.791560  -2.787895  -3.464369   5.340959
     3  C    6.160301 -10.791560  34.569781  -8.737358   5.604196  -4.016530
     4  C   -2.592165  -2.787895  -8.737358  26.024363  -9.156363   3.185170
     5  C    4.372954  -3.464369   5.604196  -9.156363  13.751392  -4.124183
     6  C   -5.012659   5.340959  -4.016530   3.185170  -4.124183  10.627573
     7  C    0.094643  -2.680215 -16.285313   0.104413  -0.929128   0.145224
     8  H   -0.104231   0.207258  -0.237666   0.811390  -0.361009   0.119902
     9  H    0.050976   0.000893   0.058820  -0.163449   0.501983  -0.181464
    10  H   -0.254211   0.182363  -0.050960   0.070117  -0.200930   0.586004
    11  H    0.631475  -0.396463   0.144579   0.059287   0.043561  -0.199725
    12  H   -0.606709   1.446698  -0.462374   0.006272  -0.073158   0.158653
    13  O    0.135861  -0.440831   0.357351   0.257985   0.059122  -0.033807
    14  O    0.147947   0.282431  -0.751245  -0.522295   0.057315  -0.035071
    15  C    0.023351  -0.208575  -0.706721   0.034428  -0.014450  -0.028258
    16  H    0.009023  -0.039482  -0.045888   0.019895  -0.003509   0.000176
    17  H   -0.001294   0.020234  -0.010476  -0.015410   0.000637  -0.000002
    18  H   -0.001294   0.020234  -0.010476  -0.015410   0.000637  -0.000002
              7          8          9         10         11         12
     1  C    0.094643  -0.104231   0.050976  -0.254211   0.631475  -0.606709
     2  C   -2.680215   0.207258   0.000893   0.182363  -0.396463   1.446698
     3  C  -16.285313  -0.237666   0.058820  -0.050960   0.144579  -0.462374
     4  C    0.104413   0.811390  -0.163449   0.070117   0.059287   0.006272
     5  C   -0.929128  -0.361009   0.501983  -0.200930   0.043561  -0.073158
     6  C    0.145224   0.119902  -0.181464   0.586004  -0.199725   0.158653
     7  C   25.605613  -0.172711   0.003695  -0.041926  -0.011306  -0.206387
     8  H   -0.172711   0.550063  -0.016423   0.003119   0.000466   0.005421
     9  H    0.003695  -0.016423   0.550527  -0.016519  -0.000584   0.000964
    10  H   -0.041926   0.003119  -0.016519   0.559755  -0.017732   0.004362
    11  H   -0.011306   0.000466  -0.000584  -0.017732   0.559929  -0.026190
    12  H   -0.206387   0.005421   0.000964   0.004362  -0.026190   0.576728
    13  O   -0.175447   0.003605   0.000856  -0.000086   0.001638  -0.014038
    14  O    0.264888  -0.008562   0.001596  -0.000547   0.000795  -0.016207
    15  C    0.546214  -0.006869   0.000839  -0.000904   0.001251  -0.006845
    16  H    0.110931  -0.000477  -0.000044  -0.000044   0.000262  -0.006149
    17  H   -0.038341   0.000338   0.000060   0.000009  -0.000094   0.001626
    18  H   -0.038341   0.000338   0.000060   0.000009  -0.000094   0.001626
             13         14         15         16         17         18
     1  C    0.135861   0.147947   0.023351   0.009023  -0.001294  -0.001294
     2  C   -0.440831   0.282431  -0.208575  -0.039482   0.020234   0.020234
     3  C    0.357351  -0.751245  -0.706721  -0.045888  -0.010476  -0.010476
     4  C    0.257985  -0.522295   0.034428   0.019895  -0.015410  -0.015410
     5  C    0.059122   0.057315  -0.014450  -0.003509   0.000637   0.000637
     6  C   -0.033807  -0.035071  -0.028258   0.000176  -0.000002  -0.000002
     7  C   -0.175447   0.264888   0.546214   0.110931  -0.038341  -0.038341
     8  H    0.003605  -0.008562  -0.006869  -0.000477   0.000338   0.000338
     9  H    0.000856   0.001596   0.000839  -0.000044   0.000060   0.000060
    10  H   -0.000086  -0.000547  -0.000904  -0.000044   0.000009   0.000009
    11  H    0.001638   0.000795   0.001251   0.000262  -0.000094  -0.000094
    12  H   -0.014038  -0.016207  -0.006845  -0.006149   0.001626   0.001626
    13  O    8.417037  -0.243584  -0.050504   0.004196  -0.013587  -0.013587
    14  O   -0.243584   8.848992   0.157835  -0.065631  -0.015304  -0.015304
    15  C   -0.050504   0.157835   5.350457   0.369189   0.403102   0.403102
    16  H    0.004196  -0.065631   0.369189   0.549813  -0.029537  -0.029537
    17  H   -0.013587  -0.015304   0.403102  -0.029537   0.557198  -0.043142
    18  H   -0.013587  -0.015304   0.403102  -0.029537  -0.043142   0.557198
 Mulliken atomic charges:
              1
     1  C    0.080786
     2  C   -0.750142
     3  C    1.211539
     4  C   -0.582974
     5  C   -0.064695
     6  C   -0.531957
     7  C   -0.296506
     8  H    0.206049
     9  H    0.207214
    10  H    0.178122
    11  H    0.208945
    12  H    0.215708
    13  O   -0.252180
    14  O   -0.088048
    15  C   -0.266641
    16  H    0.156814
    17  H    0.183983
    18  H    0.183983
 Sum of Mulliken atomic charges =   0.00000
 Mulliken charges with hydrogens summed into heavy atoms:
              1
     1  C    0.289731
     2  C   -0.534434
     3  C    1.211539
     4  C   -0.376925
     5  C    0.142519
     6  C   -0.353835
     7  C   -0.296506
    13  O   -0.252180
    14  O   -0.088048
    15  C    0.258140
 Sum of Mulliken charges with hydrogens summed into heavy atoms =   0.00000
 Electronic spatial extent (au):  <R**2>=           1626.8526
 Charge=              0.0000 electrons
 Dipole moment (field-independent basis, Debye):
    X=              1.6902    Y=             -0.4115    Z=              0.0000  Tot=              1.7395
 Quadrupole moment (field-independent basis, Debye-Ang):
   XX=            -60.4303   YY=            -46.3030   ZZ=            -61.9597
   XY=              2.1085   XZ=              0.0000   YZ=              0.0000
 Traceless Quadrupole moment (field-independent basis, Debye-Ang):
   XX=             -4.1993   YY=              9.9280   ZZ=             -5.7287
   XY=              2.1085   XZ=              0.0000   YZ=              0.0000
 Octapole moment (field-independent basis, Debye-Ang**2):
  XXX=             18.8257  YYY=            -28.9800  ZZZ=              0.0000  XYY=            -11.1230
  XXY=              1.9823  XXZ=              0.0000  XZZ=             -8.9497  YZZ=            -12.7183
  YYZ=              0.0000  XYZ=              0.0000
 Hexadecapole moment (field-independent basis, Debye-Ang**3):
 XXXX=           -719.5013 YYYY=          -1218.0085 ZZZZ=            -76.2872 XXXY=           -254.6227
 XXXZ=              0.0000 YYYX=           -208.4076 YYYZ=              0.0000 ZZZX=              0.0000
 ZZZY=              0.0000 XXYY=           -324.6949 XXZZ=           -139.5460 YYZZ=           -262.8533
 XXYZ=              0.0000 YYXZ=              0.0000 ZZXY=            -87.5633
 N-N= 4.889988961375D+02 E-N=-2.050321185776D+03  KE= 4.587297513275D+02
 Symmetry A'   KE= 4.418069092926D+02
 Symmetry A"   KE= 1.692284203497D+01
 No NMR shielding tensors so no spin-rotation constants.
 Leave Link  601 at Fri Dec  3 14:36:21 2021, MaxMem=  498073600 cpu:       2.4
 (Enter /apps/software//g09/l9999.exe)
 1\1\GINC-DLT01\SP\RMP2-FC\6-311++G(d,p)\C8H8O2\ITAMAR\03-Dec-2021\0\\#
 P MP2/6-311++G** DENSITY=MP2\\X=COOCH3\\0,1\C,0,2.2126,1.234959,0.\C,0
 ,1.391589,0.110944,0.\C,0,0.,0.262493,0.\C,0,-0.558993,1.545477,0.\C,0
 ,0.264918,2.665692,0.\C,0,1.651568,2.511784,0.\C,0,-0.928811,-0.90365,
 0.\H,0,-1.63745,1.643544,0.\H,0,-0.171787,3.657705,0.\H,0,2.293835,3.3
 85379,0.\H,0,3.28994,1.115423,0.\H,0,1.820124,-0.882344,0.\O,0,-2.1357
 33,-0.820041,0.\O,0,-0.274499,-2.086246,0.\C,0,-1.103944,-3.261436,0.\
 H,0,-0.414342,-4.10265,0.\H,0,-1.736017,-3.282166,0.88872\H,0,-1.73601
 7,-3.282166,-0.88872\\Version=EM64L-G09RevA.02\State=1-A'\HF=-457.4616
 371\MP2=-458.9591989\RMSD=3.155e-09\Dipole=0.66496,-0.1619041,0.\Quadr
 upole=-3.1220547,7.3811985,-4.2591438,1.567647,0.,0.\PG=CS [SG(C8H6O2)
 ,X(H2)]\\@


 IT IS WELL TO REMEMBER THAT MAN IS A PART OF NATURE AND THAT HIS WORKS,
 WHATEVER THEY MAY BE, ARE NO MORE "UNNATURAL" THAN 
 THE FLIGHT OF AN EAGLE OR THE PASSAGE OF A TORNADO.

                                    -- CHARLES MCCARRY IN "THE GREAT SOUTHWEST"
 Job cpu time:  0 days  0 hours 41 minutes 26.5 seconds.
 File lengths (MBytes):  RWF=     47 Int=      0 D2E=      0 Chk=      7 Scr=      1
 Normal termination of Gaussian 09 at Fri Dec  3 14:36:21 2021.
