X=NN+                                                                   
SP        RMP2-FC                                                     6-311++G(d,p)       
Number of atoms                            I               13
Info1-9                                    I   N=           9
          24          22           0           0           0         110
           1           2           1
Charge                                     I                1
Multiplicity                               I                1
Number of electrons                        I               54
Number of alpha electrons                  I               27
Number of beta electrons                   I               27
Number of basis functions                  I              211
Number of independent functions            I              211
Number of point charges in /Mol/           I                0
Number of translation vectors              I                0
Atomic numbers                             I   N=          13
           6           6           6           6           6           6
           7           1           1           1           1           1
           7
Nuclear charges                            R   N=          13
  6.00000000E+00  6.00000000E+00  6.00000000E+00  6.00000000E+00  6.00000000E+00
  6.00000000E+00  7.00000000E+00  1.00000000E+00  1.00000000E+00  1.00000000E+00
  1.00000000E+00  1.00000000E+00  7.00000000E+00
Current cartesian coordinates              R   N=          39
  2.30739151E+00 -2.79766962E+00  0.00000000E+00  2.34918848E+00 -1.82674156E-01
  0.00000000E+00  2.56708290E-17  1.06320906E+00  0.00000000E+00 -2.34902218E+00
 -1.83091786E-01  0.00000000E+00 -2.30676034E+00 -2.79804190E+00  0.00000000E+00
  4.44085641E-04 -4.09228698E+00  0.00000000E+00 -3.25032895E-04  3.66900722E+00
  0.00000000E+00 -4.10176773E+00  8.72558365E-01  0.00000000E+00 -4.07098410E+00
 -3.83409181E+00  0.00000000E+00  5.68807566E-04 -6.14010571E+00  0.00000000E+00
  4.07183258E+00 -3.83334537E+00  0.00000000E+00  4.10178663E+00  8.73221659E-01
  0.00000000E+00 -9.44863066E-04  5.76029154E+00  0.00000000E+00
Force Field                                I                0
Int Atom Types                             I   N=          13
           0           0           0           0           0           0
           0           0           0           0           0           0
           0
MM charges                                 R   N=          13
  0.00000000E+00  0.00000000E+00  0.00000000E+00  0.00000000E+00  0.00000000E+00
  0.00000000E+00  0.00000000E+00  0.00000000E+00  0.00000000E+00  0.00000000E+00
  0.00000000E+00  0.00000000E+00  0.00000000E+00
Integer atomic weights                     I   N=          13
          12          12          12          12          12          12
          14           1           1           1           1           1
          14
Real atomic weights                        R   N=          13
  1.20000000E+01  1.20000000E+01  1.20000000E+01  1.20000000E+01  1.20000000E+01
  1.20000000E+01  1.40030740E+01  1.00782504E+00  1.00782504E+00  1.00782504E+00
  1.00782504E+00  1.00782504E+00  1.40030740E+01
Atom fragment info                         I   N=          13
           0           0           0           0           0           0
           0           0           0           0           0           0
           0
Atom residue num                           I   N=          13
           0           0           0           0           0           0
           0           0           0           0           0           0
           0
Nuclear spins                              I   N=          13
           0           0           0           0           0           0
           2           1           1           1           1           1
           2
Nuclear ZEff                               R   N=          13
 -3.60000000E+00 -3.60000000E+00 -3.60000000E+00 -3.60000000E+00 -3.60000000E+00
 -3.60000000E+00 -4.55000000E+00 -1.00000000E+00 -1.00000000E+00 -1.00000000E+00
 -1.00000000E+00 -1.00000000E+00 -4.55000000E+00
Nuclear QMom                               R   N=          13
  0.00000000E+00  0.00000000E+00  0.00000000E+00  0.00000000E+00  0.00000000E+00
  0.00000000E+00  2.04400000E+00  0.00000000E+00  0.00000000E+00  0.00000000E+00
  0.00000000E+00  0.00000000E+00  2.04400000E+00
Nuclear GFac                               R   N=          13
  0.00000000E+00  0.00000000E+00  0.00000000E+00  0.00000000E+00  0.00000000E+00
  0.00000000E+00  4.03761000E-01  2.79284600E+00  2.79284600E+00  2.79284600E+00
  2.79284600E+00  2.79284600E+00  4.03761000E-01
MicOpt                                     I   N=          13
          -1          -1          -1          -1          -1          -1
          -1          -1          -1          -1          -1          -1
          -1
Number of contracted shells                I               73
Number of primitive shells                 I              139
Pure/Cartesian d shells                    I                0
Pure/Cartesian f shells                    I                0
Highest angular momentum                   I                2
Largest degree of contraction              I                6
Shell types                                I   N=          73
           0          -1          -1          -1          -1          -2
           0          -1          -1          -1          -1          -2
           0          -1          -1          -1          -1          -2
           0          -1          -1          -1          -1          -2
           0          -1          -1          -1          -1          -2
           0          -1          -1          -1          -1          -2
           0          -1          -1          -1          -1          -2
           0           0           0           0           1           0
           0           0           0           1           0           0
           0           0           1           0           0           0
           0           1           0           0           0           0
           1           0          -1          -1          -1          -1
          -2
Number of primitives per shell             I   N=          73
           6           3           1           1           1           1
           6           3           1           1           1           1
           6           3           1           1           1           1
           6           3           1           1           1           1
           6           3           1           1           1           1
           6           3           1           1           1           1
           6           3           1           1           1           1
           3           1           1           1           1           3
           1           1           1           1           3           1
           1           1           1           3           1           1
           1           1           3           1           1           1
           1           6           3           1           1           1
           1
Shell to atom map                          I   N=          73
           1           1           1           1           1           1
           2           2           2           2           2           2
           3           3           3           3           3           3
           4           4           4           4           4           4
           5           5           5           5           5           5
           6           6           6           6           6           6
           7           7           7           7           7           7
           8           8           8           8           8           9
           9           9           9           9          10          10
          10          10          10          11          11          11
          11          11          12          12          12          12
          12          13          13          13          13          13
          13
Primitive exponents                        R   N=         139
  4.56324000E+03  6.82024000E+02  1.54973000E+02  4.44553000E+01  1.30290000E+01
  1.82773000E+00  2.09642000E+01  4.80331000E+00  1.45933000E+00  4.83456000E-01
  1.45585000E-01  4.38000000E-02  6.26000000E-01  4.56324000E+03  6.82024000E+02
  1.54973000E+02  4.44553000E+01  1.30290000E+01  1.82773000E+00  2.09642000E+01
  4.80331000E+00  1.45933000E+00  4.83456000E-01  1.45585000E-01  4.38000000E-02
  6.26000000E-01  4.56324000E+03  6.82024000E+02  1.54973000E+02  4.44553000E+01
  1.30290000E+01  1.82773000E+00  2.09642000E+01  4.80331000E+00  1.45933000E+00
  4.83456000E-01  1.45585000E-01  4.38000000E-02  6.26000000E-01  4.56324000E+03
  6.82024000E+02  1.54973000E+02  4.44553000E+01  1.30290000E+01  1.82773000E+00
  2.09642000E+01  4.80331000E+00  1.45933000E+00  4.83456000E-01  1.45585000E-01
  4.38000000E-02  6.26000000E-01  4.56324000E+03  6.82024000E+02  1.54973000E+02
  4.44553000E+01  1.30290000E+01  1.82773000E+00  2.09642000E+01  4.80331000E+00
  1.45933000E+00  4.83456000E-01  1.45585000E-01  4.38000000E-02  6.26000000E-01
  4.56324000E+03  6.82024000E+02  1.54973000E+02  4.44553000E+01  1.30290000E+01
  1.82773000E+00  2.09642000E+01  4.80331000E+00  1.45933000E+00  4.83456000E-01
  1.45585000E-01  4.38000000E-02  6.26000000E-01  6.29348000E+03  9.49044000E+02
  2.18776000E+02  6.36916000E+01  1.88282000E+01  2.72023000E+00  3.06331000E+01
  7.02614000E+00  2.11205000E+00  6.84009000E-01  2.00878000E-01  6.39000000E-02
  9.13000000E-01  3.38650000E+01  5.09479000E+00  1.15879000E+00  3.25840000E-01
  1.02741000E-01  3.60000000E-02  7.50000000E-01  3.38650000E+01  5.09479000E+00
  1.15879000E+00  3.25840000E-01  1.02741000E-01  3.60000000E-02  7.50000000E-01
  3.38650000E+01  5.09479000E+00  1.15879000E+00  3.25840000E-01  1.02741000E-01
  3.60000000E-02  7.50000000E-01  3.38650000E+01  5.09479000E+00  1.15879000E+00
  3.25840000E-01  1.02741000E-01  3.60000000E-02  7.50000000E-01  3.38650000E+01
  5.09479000E+00  1.15879000E+00  3.25840000E-01  1.02741000E-01  3.60000000E-02
  7.50000000E-01  6.29348000E+03  9.49044000E+02  2.18776000E+02  6.36916000E+01
  1.88282000E+01  2.72023000E+00  3.06331000E+01  7.02614000E+00  2.11205000E+00
  6.84009000E-01  2.00878000E-01  6.39000000E-02  9.13000000E-01
Contraction coefficients                   R   N=         139
  1.96665025E-03  1.52306019E-02  7.61269097E-02  2.60801033E-01  6.16462078E-01
  2.21006028E-01  1.14660081E-01  9.19999648E-01 -3.03068213E-03  1.00000000E+00
  1.00000000E+00  1.00000000E+00  1.00000000E+00  1.96665025E-03  1.52306019E-02
  7.61269097E-02  2.60801033E-01  6.16462078E-01  2.21006028E-01  1.14660081E-01
  9.19999648E-01 -3.03068213E-03  1.00000000E+00  1.00000000E+00  1.00000000E+00
  1.00000000E+00  1.96665025E-03  1.52306019E-02  7.61269097E-02  2.60801033E-01
  6.16462078E-01  2.21006028E-01  1.14660081E-01  9.19999648E-01 -3.03068213E-03
  1.00000000E+00  1.00000000E+00  1.00000000E+00  1.00000000E+00  1.96665025E-03
  1.52306019E-02  7.61269097E-02  2.60801033E-01  6.16462078E-01  2.21006028E-01
  1.14660081E-01  9.19999648E-01 -3.03068213E-03  1.00000000E+00  1.00000000E+00
  1.00000000E+00  1.00000000E+00  1.96665025E-03  1.52306019E-02  7.61269097E-02
  2.60801033E-01  6.16462078E-01  2.21006028E-01  1.14660081E-01  9.19999648E-01
 -3.03068213E-03  1.00000000E+00  1.00000000E+00  1.00000000E+00  1.00000000E+00
  1.96665025E-03  1.52306019E-02  7.61269097E-02  2.60801033E-01  6.16462078E-01
  2.21006028E-01  1.14660081E-01  9.19999648E-01 -3.03068213E-03  1.00000000E+00
  1.00000000E+00  1.00000000E+00  1.00000000E+00  1.96978815E-03  1.49612859E-02
  7.35005308E-02  2.48936766E-01  6.02459433E-01  2.56201759E-01  1.11906080E-01
  9.21666655E-01 -2.56919183E-03  1.00000000E+00  1.00000000E+00  1.00000000E+00
  1.00000000E+00  2.54938145E-02  1.90373109E-01  8.52161486E-01  1.00000000E+00
  1.00000000E+00  1.00000000E+00  1.00000000E+00  2.54938145E-02  1.90373109E-01
  8.52161486E-01  1.00000000E+00  1.00000000E+00  1.00000000E+00  1.00000000E+00
  2.54938145E-02  1.90373109E-01  8.52161486E-01  1.00000000E+00  1.00000000E+00
  1.00000000E+00  1.00000000E+00  2.54938145E-02  1.90373109E-01  8.52161486E-01
  1.00000000E+00  1.00000000E+00  1.00000000E+00  1.00000000E+00  2.54938145E-02
  1.90373109E-01  8.52161486E-01  1.00000000E+00  1.00000000E+00  1.00000000E+00
  1.00000000E+00  1.96978815E-03  1.49612859E-02  7.35005308E-02  2.48936766E-01
  6.02459433E-01  2.56201759E-01  1.11906080E-01  9.21666655E-01 -2.56919183E-03
  1.00000000E+00  1.00000000E+00  1.00000000E+00  1.00000000E+00
P(S=P) Contraction coefficients            R   N=         139
  0.00000000E+00  0.00000000E+00  0.00000000E+00  0.00000000E+00  0.00000000E+00
  0.00000000E+00  4.02486927E-02  2.37593957E-01  8.15853851E-01  1.00000000E+00
  1.00000000E+00  1.00000000E+00  0.00000000E+00  0.00000000E+00  0.00000000E+00
  0.00000000E+00  0.00000000E+00  0.00000000E+00  0.00000000E+00  4.02486927E-02
  2.37593957E-01  8.15853851E-01  1.00000000E+00  1.00000000E+00  1.00000000E+00
  0.00000000E+00  0.00000000E+00  0.00000000E+00  0.00000000E+00  0.00000000E+00
  0.00000000E+00  0.00000000E+00  4.02486927E-02  2.37593957E-01  8.15853851E-01
  1.00000000E+00  1.00000000E+00  1.00000000E+00  0.00000000E+00  0.00000000E+00
  0.00000000E+00  0.00000000E+00  0.00000000E+00  0.00000000E+00  0.00000000E+00
  4.02486927E-02  2.37593957E-01  8.15853851E-01  1.00000000E+00  1.00000000E+00
  1.00000000E+00  0.00000000E+00  0.00000000E+00  0.00000000E+00  0.00000000E+00
  0.00000000E+00  0.00000000E+00  0.00000000E+00  4.02486927E-02  2.37593957E-01
  8.15853851E-01  1.00000000E+00  1.00000000E+00  1.00000000E+00  0.00000000E+00
  0.00000000E+00  0.00000000E+00  0.00000000E+00  0.00000000E+00  0.00000000E+00
  0.00000000E+00  4.02486927E-02  2.37593957E-01  8.15853851E-01  1.00000000E+00
  1.00000000E+00  1.00000000E+00  0.00000000E+00  0.00000000E+00  0.00000000E+00
  0.00000000E+00  0.00000000E+00  0.00000000E+00  0.00000000E+00  3.83119186E-02
  2.37403116E-01  8.17592398E-01  1.00000000E+00  1.00000000E+00  1.00000000E+00
  0.00000000E+00  0.00000000E+00  0.00000000E+00  0.00000000E+00  0.00000000E+00
  0.00000000E+00  0.00000000E+00  0.00000000E+00  0.00000000E+00  0.00000000E+00
  0.00000000E+00  0.00000000E+00  0.00000000E+00  0.00000000E+00  0.00000000E+00
  0.00000000E+00  0.00000000E+00  0.00000000E+00  0.00000000E+00  0.00000000E+00
  0.00000000E+00  0.00000000E+00  0.00000000E+00  0.00000000E+00  0.00000000E+00
  0.00000000E+00  0.00000000E+00  0.00000000E+00  0.00000000E+00  0.00000000E+00
  0.00000000E+00  0.00000000E+00  0.00000000E+00  0.00000000E+00  0.00000000E+00
  0.00000000E+00  0.00000000E+00  0.00000000E+00  0.00000000E+00  0.00000000E+00
  0.00000000E+00  0.00000000E+00  3.83119186E-02  2.37403116E-01  8.17592398E-01
  1.00000000E+00  1.00000000E+00  1.00000000E+00  0.00000000E+00
Coordinates of each shell                  R   N=         219
  2.30739176E+00 -2.79766940E+00  0.00000000E+00  2.30739176E+00 -2.79766940E+00
  0.00000000E+00  2.30739176E+00 -2.79766940E+00  0.00000000E+00  2.30739176E+00
 -2.79766940E+00  0.00000000E+00  2.30739176E+00 -2.79766940E+00  0.00000000E+00
  2.30739176E+00 -2.79766940E+00  0.00000000E+00  2.34918856E+00 -1.82673936E-01
  0.00000000E+00  2.34918856E+00 -1.82673936E-01  0.00000000E+00  2.34918856E+00
 -1.82673936E-01  0.00000000E+00  2.34918856E+00 -1.82673936E-01  0.00000000E+00
  2.34918856E+00 -1.82673936E-01  0.00000000E+00  2.34918856E+00 -1.82673936E-01
  0.00000000E+00  0.00000000E+00  1.06320912E+00  0.00000000E+00  0.00000000E+00
  1.06320912E+00  0.00000000E+00  0.00000000E+00  1.06320912E+00  0.00000000E+00
  0.00000000E+00  1.06320912E+00  0.00000000E+00  0.00000000E+00  1.06320912E+00
  0.00000000E+00  0.00000000E+00  1.06320912E+00  0.00000000E+00 -2.34902210E+00
 -1.83091869E-01  0.00000000E+00 -2.34902210E+00 -1.83091869E-01  0.00000000E+00
 -2.34902210E+00 -1.83091869E-01  0.00000000E+00 -2.34902210E+00 -1.83091869E-01
  0.00000000E+00 -2.34902210E+00 -1.83091869E-01  0.00000000E+00 -2.34902210E+00
 -1.83091869E-01  0.00000000E+00 -2.30676009E+00 -2.79804198E+00  0.00000000E+00
 -2.30676009E+00 -2.79804198E+00  0.00000000E+00 -2.30676009E+00 -2.79804198E+00
  0.00000000E+00 -2.30676009E+00 -2.79804198E+00  0.00000000E+00 -2.30676009E+00
 -2.79804198E+00  0.00000000E+00 -2.30676009E+00 -2.79804198E+00  0.00000000E+00
  4.44418851E-04 -4.09228691E+00  0.00000000E+00  4.44418851E-04 -4.09228691E+00
  0.00000000E+00  4.44418851E-04 -4.09228691E+00  0.00000000E+00  4.44418851E-04
 -4.09228691E+00  0.00000000E+00  4.44418851E-04 -4.09228691E+00  0.00000000E+00
  4.44418851E-04 -4.09228691E+00  0.00000000E+00 -3.25201313E-04  3.66900729E+00
  0.00000000E+00 -3.25201313E-04  3.66900729E+00  0.00000000E+00 -3.25201313E-04
  3.66900729E+00  0.00000000E+00 -3.25201313E-04  3.66900729E+00  0.00000000E+00
 -3.25201313E-04  3.66900729E+00  0.00000000E+00 -3.25201313E-04  3.66900729E+00
  0.00000000E+00 -4.10176772E+00  8.72558169E-01  0.00000000E+00 -4.10176772E+00
  8.72558169E-01  0.00000000E+00 -4.10176772E+00  8.72558169E-01  0.00000000E+00
 -4.10176772E+00  8.72558169E-01  0.00000000E+00 -4.10176772E+00  8.72558169E-01
  0.00000000E+00 -4.07098378E+00 -3.83409200E+00  0.00000000E+00 -4.07098378E+00
 -3.83409200E+00  0.00000000E+00 -4.07098378E+00 -3.83409200E+00  0.00000000E+00
 -4.07098378E+00 -3.83409200E+00  0.00000000E+00 -4.07098378E+00 -3.83409200E+00
  0.00000000E+00  5.69273131E-04 -6.14010564E+00  0.00000000E+00  5.69273131E-04
 -6.14010564E+00  0.00000000E+00  5.69273131E-04 -6.14010564E+00  0.00000000E+00
  5.69273131E-04 -6.14010564E+00  0.00000000E+00  5.69273131E-04 -6.14010564E+00
  0.00000000E+00  4.07183290E+00 -3.83334503E+00  0.00000000E+00  4.07183290E+00
 -3.83334503E+00  0.00000000E+00  4.07183290E+00 -3.83334503E+00  0.00000000E+00
  4.07183290E+00 -3.83334503E+00  0.00000000E+00  4.07183290E+00 -3.83334503E+00
  0.00000000E+00  4.10178664E+00  8.73221993E-01  0.00000000E+00  4.10178664E+00
  8.73221993E-01  0.00000000E+00  4.10178664E+00  8.73221993E-01  0.00000000E+00
  4.10178664E+00  8.73221993E-01  0.00000000E+00  4.10178664E+00  8.73221993E-01
  0.00000000E+00 -9.45166648E-04  5.76029161E+00  0.00000000E+00 -9.45166648E-04
  5.76029161E+00  0.00000000E+00 -9.45166648E-04  5.76029161E+00  0.00000000E+00
 -9.45166648E-04  5.76029161E+00  0.00000000E+00 -9.45166648E-04  5.76029161E+00
  0.00000000E+00 -9.45166648E-04  5.76029161E+00  0.00000000E+00
Constraint Structure                       R   N=          39
  2.30739176E+00 -2.79766940E+00  0.00000000E+00  2.34918856E+00 -1.82673936E-01
  0.00000000E+00  0.00000000E+00  1.06320912E+00  0.00000000E+00 -2.34902210E+00
 -1.83091869E-01  0.00000000E+00 -2.30676009E+00 -2.79804198E+00  0.00000000E+00
  4.44418851E-04 -4.09228691E+00  0.00000000E+00 -3.25201313E-04  3.66900729E+00
  0.00000000E+00 -4.10176772E+00  8.72558169E-01  0.00000000E+00 -4.07098378E+00
 -3.83409200E+00  0.00000000E+00  5.69273131E-04 -6.14010564E+00  0.00000000E+00
  4.07183290E+00 -3.83334503E+00  0.00000000E+00  4.10178664E+00  8.73221993E-01
  0.00000000E+00 -9.45166648E-04  5.76029161E+00  0.00000000E+00
Num ILSW                                   I              100
ILSW                                       I   N=         100
           0           0           0           0           2           0
           0           0           0           0           0          -1
           0           0           0           0           0           0
           0           0           0           0           0           0
           1           0           0           0           0           0
           0           0      100000           0          -1           0
           0           0           0           0           0           0
           0           0           0           1           0           0
           0           0           1           0           0           0
           0           0           4          40           0           0
           0           0           0           0           0           0
           0           0           0           0           0           0
           0           0           0           0           0           0
           0           0           0           0           0           0
           0           0           0           0           0           0
           0           0           0           0           0           0
           0           0           0           0
Num RLSW                                   I               40
RLSW                                       R   N=          40
  1.00000000E+00  1.00000000E+00  1.00000000E+00  1.00000000E+00  1.00000000E+00
  0.00000000E+00  0.00000000E+00  1.00000000E+00  0.00000000E+00  0.00000000E+00
  0.00000000E+00  0.00000000E+00  1.00000000E+00  0.00000000E+00  0.00000000E+00
  0.00000000E+00  0.00000000E+00  1.00000000E+00  0.00000000E+00  0.00000000E+00
  0.00000000E+00  0.00000000E+00  1.00000000E+00  0.00000000E+00  0.00000000E+00
  0.00000000E+00  0.00000000E+00  1.00000000E+00  0.00000000E+00  0.00000000E+00
  0.00000000E+00  0.00000000E+00  0.00000000E+00  0.00000000E+00  0.00000000E+00
  0.00000000E+00  0.00000000E+00  0.00000000E+00  1.00000000E+00  1.00000000E+00
MxBond                                     I                3
NBond                                      I   N=          13
           3           3           3           3           3           3
           2           1           1           1           1           1
           1
IBond                                      I   N=          39
           2           6          11           1           3          12
           2           4           7           3           5           8
           4           6           9           1           5          10
           3          13           0           4           0           0
           5           0           0           6           0           0
           1           0           0           2           0           0
           7           0           0
RBond                                      R   N=          39
  1.50000000E+00  1.50000000E+00  1.00000000E+00  1.50000000E+00  1.50000000E+00
  1.00000000E+00  1.50000000E+00  1.50000000E+00  1.00000000E+00  1.50000000E+00
  1.50000000E+00  1.00000000E+00  1.50000000E+00  1.50000000E+00  1.00000000E+00
  1.50000000E+00  1.50000000E+00  1.00000000E+00  1.00000000E+00  3.00000000E+00
  0.00000000E+00  1.00000000E+00  0.00000000E+00  0.00000000E+00  1.00000000E+00
  0.00000000E+00  0.00000000E+00  1.00000000E+00  0.00000000E+00  0.00000000E+00
  1.00000000E+00  0.00000000E+00  0.00000000E+00  1.00000000E+00  0.00000000E+00
  0.00000000E+00  3.00000000E+00  0.00000000E+00  0.00000000E+00
Virial Ratio                               R      2.001518106608248E+00
SCF Energy                                 R     -3.388131526540713E+02
MP2 Energy                                 R     -3.399578381593469E+02
Total Energy                               R     -3.399578381593469E+02
Post-SCF wavefunction norm                 R      1.190275203108614E+00
RMS Density                                R      9.145896157100497E-09
External E-field                           R   N=          35
  0.00000000E+00  0.00000000E+00  0.00000000E+00  0.00000000E+00  0.00000000E+00
  0.00000000E+00  0.00000000E+00  0.00000000E+00  0.00000000E+00  0.00000000E+00
  0.00000000E+00  0.00000000E+00  0.00000000E+00  0.00000000E+00  0.00000000E+00
  0.00000000E+00  0.00000000E+00  0.00000000E+00  0.00000000E+00  0.00000000E+00
  0.00000000E+00  0.00000000E+00  0.00000000E+00  0.00000000E+00  0.00000000E+00
  0.00000000E+00  0.00000000E+00  0.00000000E+00  0.00000000E+00  0.00000000E+00
  0.00000000E+00  0.00000000E+00  0.00000000E+00  0.00000000E+00  0.00000000E+00
IOpCl                                      I                0
IROHF                                      I                0
Alpha Orbital Energies                     R   N=         211
 -1.59900186E+01 -1.59648014E+01 -1.15183391E+01 -1.14607854E+01 -1.14607541E+01
 -1.14398349E+01 -1.14250491E+01 -1.14249920E+01 -1.74772082E+00 -1.40365730E+00
 -1.29770379E+00 -1.22733532E+00 -1.13759029E+00 -1.04286158E+00 -9.77922191E-01
 -9.25349018E-01 -9.10264137E-01 -9.01172705E-01 -8.81485525E-01 -8.12568993E-01
 -8.03864024E-01 -7.95259256E-01 -7.13551888E-01 -7.03258278E-01 -6.96189246E-01
 -5.45437815E-01 -5.35046585E-01 -1.54916372E-01 -1.06474956E-01 -8.24838667E-02
 -6.63287311E-02 -6.09983816E-02 -5.47584580E-02 -3.57451495E-02 -3.15647558E-02
 -2.48315784E-02 -1.96471369E-02 -1.25411490E-02  9.56347387E-03  1.49379686E-02
  1.72029726E-02  2.25245039E-02  2.38187246E-02  4.96367927E-02  5.56326435E-02
  5.57353428E-02  6.53777216E-02  6.93921071E-02  7.26144509E-02  7.48770565E-02
  7.61403353E-02  8.40896609E-02  8.94223486E-02  9.01561916E-02  9.84388106E-02
  1.05212555E-01  1.25481830E-01  1.25580744E-01  1.41851343E-01  1.45397470E-01
  1.59970444E-01  1.61959406E-01  1.72882044E-01  1.86189685E-01  1.95010665E-01
  1.95682336E-01  1.97061023E-01  2.25978580E-01  2.27658364E-01  2.42536152E-01
  2.55110277E-01  2.58108837E-01  2.81821701E-01  2.92464851E-01  2.99999164E-01
  3.33139640E-01  3.36901898E-01  3.63968445E-01  3.73951918E-01  4.47278550E-01
  4.92617676E-01  5.30292779E-01  5.31571587E-01  5.49210887E-01  5.69977955E-01
  5.72121605E-01  5.74662419E-01  5.75953919E-01  5.93913980E-01  6.22944475E-01
  6.36127767E-01  6.40358573E-01  6.72125313E-01  6.96832931E-01  7.02581562E-01
  7.19188322E-01  7.62914575E-01  7.69093289E-01  7.78601216E-01  8.08697035E-01
  8.42079028E-01  8.47405509E-01  8.63379705E-01  8.78389159E-01  8.85285898E-01
  8.85686084E-01  9.06943829E-01  9.24267238E-01  9.43397893E-01  9.56894140E-01
  9.66814435E-01  9.75564539E-01  1.01933260E+00  1.03014118E+00  1.03538678E+00
  1.04936625E+00  1.08291839E+00  1.11844070E+00  1.12474598E+00  1.16652111E+00
  1.18334622E+00  1.24963170E+00  1.25642867E+00  1.34897668E+00  1.36047046E+00
  1.51981187E+00  1.55762887E+00  1.57668377E+00  1.60893367E+00  1.62474666E+00
  1.63831238E+00  1.65243040E+00  1.69010116E+00  1.69427508E+00  1.73397691E+00
  1.73911290E+00  1.74627834E+00  1.75335189E+00  1.83174814E+00  1.86446167E+00
  1.86903789E+00  1.91850227E+00  1.92037830E+00  1.93521852E+00  2.00650579E+00
  2.00985878E+00  2.02611445E+00  2.03006113E+00  2.06188367E+00  2.07318487E+00
  2.13614244E+00  2.15361454E+00  2.17410971E+00  2.18330670E+00  2.18644686E+00
  2.24437325E+00  2.28052484E+00  2.41336870E+00  2.47658711E+00  2.50613411E+00
  2.54858306E+00  2.59665700E+00  2.63269902E+00  2.64951222E+00  2.75821158E+00
  2.79227485E+00  2.79946406E+00  2.83043140E+00  2.83479152E+00  2.84701666E+00
  2.87229682E+00  2.88542261E+00  2.92440382E+00  2.92999617E+00  2.97717296E+00
  2.99702903E+00  3.05063524E+00  3.05634733E+00  3.09763254E+00  3.10217417E+00
  3.21769542E+00  3.27870572E+00  3.34860290E+00  3.41404625E+00  3.44893373E+00
  3.55605079E+00  3.61115453E+00  3.71673846E+00  3.73435434E+00  3.79885727E+00
  3.86314208E+00  3.95448340E+00  4.10507210E+00  4.19665905E+00  4.21031279E+00
  4.22453769E+00  4.23898022E+00  4.29023161E+00  4.38182398E+00  4.38859371E+00
  4.69130738E+00  5.05565760E+00  5.24409294E+00  2.45927527E+01  2.49049622E+01
  2.49244536E+01  2.50084580E+01  2.50764654E+01  2.51583248E+01  3.63720111E+01
  3.74166189E+01
Alpha MO coefficients                      R   N=       44521
 -7.84725936E-07  2.74848594E-06 -2.07851388E-07  5.87150870E-06  0.00000000E+00
 -1.41860311E-05  5.15366060E-06 -3.86518357E-05  0.00000000E+00 -2.56193813E-04
  7.31455543E-05 -8.36997311E-05  0.00000000E+00 -3.38775420E-03  6.90746578E-04
 -5.04235939E-04  0.00000000E+00  2.82912263E-07  0.00000000E+00  0.00000000E+00
  1.74243490E-05  3.18848839E-06 -6.31834650E-07  7.86658956E-06 -9.63329623E-06
  6.00418093E-06  0.00000000E+00 -3.66114429E-05  8.96917267E-05 -6.29041192E-05
  0.00000000E+00  3.20070381E-04 -1.99401754E-04 -1.60815511E-04  0.00000000E+00
  2.88270262E-03 -5.72202287E-04 -4.13527272E-04  0.00000000E+00  3.06241940E-06
  0.00000000E+00  0.00000000E+00 -2.63684492E-05  5.94333212E-05  6.40153638E-06
  1.86448027E-05 -1.20180089E-08  1.50657432E-04  0.00000000E+00  4.67592192E-05
  3.99675261E-08 -3.62826639E-04  0.00000000E+00 -4.07555583E-04 -1.93629818E-07
  4.45669264E-04  0.00000000E+00 -2.42976575E-03  4.43152956E-07 -8.31608600E-05
  0.00000000E+00  5.71588620E-05  0.00000000E+00  0.00000000E+00  1.89997544E-04
  1.52227976E-09 -6.31090767E-07  7.86368505E-06  9.63048340E-06  6.00889187E-06
  0.00000000E+00 -3.65855931E-05 -8.96504312E-05 -6.29114108E-05  0.00000000E+00
  3.19853299E-04  1.99290450E-04 -1.60897542E-04  0.00000000E+00  2.88485966E-03
  5.72411109E-04 -4.13695123E-04  0.00000000E+00  3.06447388E-06  0.00000000E+00
  0.00000000E+00 -2.63244270E-05 -5.94395328E-05 -7.84637398E-07  2.74809066E-06
  2.08179100E-07  5.86939315E-06  0.00000000E+00 -1.41859828E-05 -5.15313543E-06
 -3.86358253E-05  0.00000000E+00 -2.56196490E-04 -7.30431051E-05 -8.37545373E-05
  0.00000000E+00 -3.38823385E-03 -6.90480482E-04 -5.04813910E-04  0.00000000E+00
  2.82315140E-07  0.00000000E+00  0.00000000E+00  1.74170428E-05 -3.18553811E-06
 -6.57974399E-07  3.06723709E-06 -7.94347790E-11  1.18970401E-06  0.00000000E+00
 -2.48294950E-05 -4.25632616E-10 -1.45686034E-05  0.00000000E+00  1.59739866E-04
  2.22810292E-08  1.26727540E-04  0.00000000E+00  3.01966623E-03  1.48786077E-07
  6.55970165E-04  0.00000000E+00 -3.07044667E-06  0.00000000E+00  0.00000000E+00
 -7.55226334E-06 -3.31117097E-09  5.56447578E-01  4.67246184E-01 -1.96056819E-07
  3.98982943E-04  0.00000000E+00  5.23325222E-03 -1.39472735E-07  3.72960558E-04