Acetylene trimerization                                                 
FOpt      RMP2-FC                                                     6-311++G(d,p)       
Number of atoms                            I               12
Info1-9                                    I   N=           9
          22          21           0           0           0         100
           2           2           1
Charge                                     I                0
Multiplicity                               I                1
Number of electrons                        I               42
Number of alpha electrons                  I               21
Number of beta electrons                   I               21
Number of basis functions                  I              174
Number of independent functions            I              174
Number of point charges in /Mol/           I                0
Number of translation vectors              I                0
Atomic numbers                             I   N=          12
           6           6           6           6           6           6
           1           1           1           1           1           1
Nuclear charges                            R   N=          12
  6.00000000E+00  6.00000000E+00  6.00000000E+00  6.00000000E+00  6.00000000E+00
  6.00000000E+00  1.00000000E+00  1.00000000E+00  1.00000000E+00  1.00000000E+00
  1.00000000E+00  1.00000000E+00
Current cartesian coordinates              R   N=          36
 -2.21083350E+00  2.68231610E+00 -1.94898036E-02 -2.73516566E-02  3.47264645E+00
  2.09462022E-02  3.42017954E+00  5.81657474E-01  2.34227229E-02 -2.98682691E+00
 -1.75289069E+00 -3.15573688E-02  3.02671640E+00 -1.70474940E+00 -3.06670474E-02
 -1.21319141E+00 -3.24787108E+00  4.00887186E-02  1.54399110E+00  4.68903136E+00
  3.25423051E-01 -4.19905689E+00  2.64348095E+00 -3.11986717E-01 -4.85319251E+00
 -1.01515750E+00 -9.57355692E-02  4.40373232E+00  2.33282131E+00  1.12740846E-02
 -1.71205169E-01 -4.95805460E+00  1.98863800E-01  3.31243887E+00 -3.69083926E+00
 -1.20913194E-01
Force Field                                I                0
Int Atom Types                             I   N=          12
           0           0           0           0           0           0
           0           0           0           0           0           0
MM charges                                 R   N=          12
  0.00000000E+00  0.00000000E+00  0.00000000E+00  0.00000000E+00  0.00000000E+00
  0.00000000E+00  0.00000000E+00  0.00000000E+00  0.00000000E+00  0.00000000E+00
  0.00000000E+00  0.00000000E+00
Integer atomic weights                     I   N=          12
          12          12          12          12          12          12
           1           1           1           1           1           1
Real atomic weights                        R   N=          12
  1.20000000E+01  1.20000000E+01  1.20000000E+01  1.20000000E+01  1.20000000E+01
  1.20000000E+01  1.00782504E+00  1.00782504E+00  1.00782504E+00  1.00782504E+00
  1.00782504E+00  1.00782504E+00
Atom fragment info                         I   N=          12
           0           0           0           0           0           0
           0           0           0           0           0           0
Atom residue num                           I   N=          12
           0           0           0           0           0           0
           0           0           0           0           0           0
Nuclear spins                              I   N=          12
           0           0           0           0           0           0
           1           1           1           1           1           1
Nuclear ZEff                               R   N=          12
 -3.60000000E+00 -3.60000000E+00 -3.60000000E+00 -3.60000000E+00 -3.60000000E+00
 -3.60000000E+00 -1.00000000E+00 -1.00000000E+00 -1.00000000E+00 -1.00000000E+00
 -1.00000000E+00 -1.00000000E+00
Nuclear QMom                               R   N=          12
  0.00000000E+00  0.00000000E+00  0.00000000E+00  0.00000000E+00  0.00000000E+00
  0.00000000E+00  0.00000000E+00  0.00000000E+00  0.00000000E+00  0.00000000E+00
  0.00000000E+00  0.00000000E+00
Nuclear GFac                               R   N=          12
  0.00000000E+00  0.00000000E+00  0.00000000E+00  0.00000000E+00  0.00000000E+00
  0.00000000E+00  2.79284600E+00  2.79284600E+00  2.79284600E+00  2.79284600E+00
  2.79284600E+00  2.79284600E+00
MicOpt                                     I   N=          12
          -1          -1          -1          -1          -1          -1
          -1          -1          -1          -1          -1          -1
Number of contracted shells                I               66
Number of primitive shells                 I              120
Pure/Cartesian d shells                    I                0
Pure/Cartesian f shells                    I                0
Highest angular momentum                   I                2
Largest degree of contraction              I                6
Shell types                                I   N=          66
           0          -1          -1          -1          -1          -2
           0          -1          -1          -1          -1          -2
           0          -1          -1          -1          -1          -2
           0          -1          -1          -1          -1          -2
           0          -1          -1          -1          -1          -2
           0          -1          -1          -1          -1          -2
           0           0           0           0           1           0
           0           0           0           1           0           0
           0           0           1           0           0           0
           0           1           0           0           0           0
           1           0           0           0           0           1
Number of primitives per shell             I   N=          66
           6           3           1           1           1           1
           6           3           1           1           1           1
           6           3           1           1           1           1
           6           3           1           1           1           1
           6           3           1           1           1           1
           6           3           1           1           1           1
           3           1           1           1           1           3
           1           1           1           1           3           1
           1           1           1           3           1           1
           1           1           3           1           1           1
           1           3           1           1           1           1
Shell to atom map                          I   N=          66
           1           1           1           1           1           1
           2           2           2           2           2           2
           3           3           3           3           3           3
           4           4           4           4           4           4
           5           5           5           5           5           5
           6           6           6           6           6           6
           7           7           7           7           7           8
           8           8           8           8           9           9
           9           9           9          10          10          10
          10          10          11          11          11          11
          11          12          12          12          12          12
Primitive exponents                        R   N=         120
  4.56324000E+03  6.82024000E+02  1.54973000E+02  4.44553000E+01  1.30290000E+01
  1.82773000E+00  2.09642000E+01  4.80331000E+00  1.45933000E+00  4.83456000E-01
  1.45585000E-01  4.38000000E-02  6.26000000E-01  4.56324000E+03  6.82024000E+02
  1.54973000E+02  4.44553000E+01  1.30290000E+01  1.82773000E+00  2.09642000E+01
  4.80331000E+00  1.45933000E+00  4.83456000E-01  1.45585000E-01  4.38000000E-02
  6.26000000E-01  4.56324000E+03  6.82024000E+02  1.54973000E+02  4.44553000E+01
  1.30290000E+01  1.82773000E+00  2.09642000E+01  4.80331000E+00  1.45933000E+00
  4.83456000E-01  1.45585000E-01  4.38000000E-02  6.26000000E-01  4.56324000E+03
  6.82024000E+02  1.54973000E+02  4.44553000E+01  1.30290000E+01  1.82773000E+00
  2.09642000E+01  4.80331000E+00  1.45933000E+00  4.83456000E-01  1.45585000E-01
  4.38000000E-02  6.26000000E-01  4.56324000E+03  6.82024000E+02  1.54973000E+02
  4.44553000E+01  1.30290000E+01  1.82773000E+00  2.09642000E+01  4.80331000E+00
  1.45933000E+00  4.83456000E-01  1.45585000E-01  4.38000000E-02  6.26000000E-01
  4.56324000E+03  6.82024000E+02  1.54973000E+02  4.44553000E+01  1.30290000E+01
  1.82773000E+00  2.09642000E+01  4.80331000E+00  1.45933000E+00  4.83456000E-01
  1.45585000E-01  4.38000000E-02  6.26000000E-01  3.38650000E+01  5.09479000E+00
  1.15879000E+00  3.25840000E-01  1.02741000E-01  3.60000000E-02  7.50000000E-01
  3.38650000E+01  5.09479000E+00  1.15879000E+00  3.25840000E-01  1.02741000E-01
  3.60000000E-02  7.50000000E-01  3.38650000E+01  5.09479000E+00  1.15879000E+00
  3.25840000E-01  1.02741000E-01  3.60000000E-02  7.50000000E-01  3.38650000E+01
  5.09479000E+00  1.15879000E+00  3.25840000E-01  1.02741000E-01  3.60000000E-02
  7.50000000E-01  3.38650000E+01  5.09479000E+00  1.15879000E+00  3.25840000E-01
  1.02741000E-01  3.60000000E-02  7.50000000E-01  3.38650000E+01  5.09479000E+00
  1.15879000E+00  3.25840000E-01  1.02741000E-01  3.60000000E-02  7.50000000E-01
Contraction coefficients                   R   N=         120
  1.96665025E-03  1.52306019E-02  7.61269097E-02  2.60801033E-01  6.16462078E-01
  2.21006028E-01  1.14660081E-01  9.19999648E-01 -3.03068213E-03  1.00000000E+00
  1.00000000E+00  1.00000000E+00  1.00000000E+00  1.96665025E-03  1.52306019E-02
  7.61269097E-02  2.60801033E-01  6.16462078E-01  2.21006028E-01  1.14660081E-01
  9.19999648E-01 -3.03068213E-03  1.00000000E+00  1.00000000E+00  1.00000000E+00
  1.00000000E+00  1.96665025E-03  1.52306019E-02  7.61269097E-02  2.60801033E-01
  6.16462078E-01  2.21006028E-01  1.14660081E-01  9.19999648E-01 -3.03068213E-03
  1.00000000E+00  1.00000000E+00  1.00000000E+00  1.00000000E+00  1.96665025E-03
  1.52306019E-02  7.61269097E-02  2.60801033E-01  6.16462078E-01  2.21006028E-01
  1.14660081E-01  9.19999648E-01 -3.03068213E-03  1.00000000E+00  1.00000000E+00
  1.00000000E+00  1.00000000E+00  1.96665025E-03  1.52306019E-02  7.61269097E-02
  2.60801033E-01  6.16462078E-01  2.21006028E-01  1.14660081E-01  9.19999648E-01
 -3.03068213E-03  1.00000000E+00  1.00000000E+00  1.00000000E+00  1.00000000E+00
  1.96665025E-03  1.52306019E-02  7.61269097E-02  2.60801033E-01  6.16462078E-01
  2.21006028E-01  1.14660081E-01  9.19999648E-01 -3.03068213E-03  1.00000000E+00
  1.00000000E+00  1.00000000E+00  1.00000000E+00  2.54938145E-02  1.90373109E-01
  8.52161486E-01  1.00000000E+00  1.00000000E+00  1.00000000E+00  1.00000000E+00
  2.54938145E-02  1.90373109E-01  8.52161486E-01  1.00000000E+00  1.00000000E+00
  1.00000000E+00  1.00000000E+00  2.54938145E-02  1.90373109E-01  8.52161486E-01
  1.00000000E+00  1.00000000E+00  1.00000000E+00  1.00000000E+00  2.54938145E-02
  1.90373109E-01  8.52161486E-01  1.00000000E+00  1.00000000E+00  1.00000000E+00
  1.00000000E+00  2.54938145E-02  1.90373109E-01  8.52161486E-01  1.00000000E+00
  1.00000000E+00  1.00000000E+00  1.00000000E+00  2.54938145E-02  1.90373109E-01
  8.52161486E-01  1.00000000E+00  1.00000000E+00  1.00000000E+00  1.00000000E+00
P(S=P) Contraction coefficients            R   N=         120
  0.00000000E+00  0.00000000E+00  0.00000000E+00  0.00000000E+00  0.00000000E+00
  0.00000000E+00  4.02486927E-02  2.37593957E-01  8.15853851E-01  1.00000000E+00
  1.00000000E+00  1.00000000E+00  0.00000000E+00  0.00000000E+00  0.00000000E+00
  0.00000000E+00  0.00000000E+00  0.00000000E+00  0.00000000E+00  4.02486927E-02
  2.37593957E-01  8.15853851E-01  1.00000000E+00  1.00000000E+00  1.00000000E+00
  0.00000000E+00  0.00000000E+00  0.00000000E+00  0.00000000E+00  0.00000000E+00
  0.00000000E+00  0.00000000E+00  4.02486927E-02  2.37593957E-01  8.15853851E-01
  1.00000000E+00  1.00000000E+00  1.00000000E+00  0.00000000E+00  0.00000000E+00
  0.00000000E+00  0.00000000E+00  0.00000000E+00  0.00000000E+00  0.00000000E+00
  4.02486927E-02  2.37593957E-01  8.15853851E-01  1.00000000E+00  1.00000000E+00
  1.00000000E+00  0.00000000E+00  0.00000000E+00  0.00000000E+00  0.00000000E+00
  0.00000000E+00  0.00000000E+00  0.00000000E+00  4.02486927E-02  2.37593957E-01
  8.15853851E-01  1.00000000E+00  1.00000000E+00  1.00000000E+00  0.00000000E+00
  0.00000000E+00  0.00000000E+00  0.00000000E+00  0.00000000E+00  0.00000000E+00
  0.00000000E+00  4.02486927E-02  2.37593957E-01  8.15853851E-01  1.00000000E+00
  1.00000000E+00  1.00000000E+00  0.00000000E+00  0.00000000E+00  0.00000000E+00
  0.00000000E+00  0.00000000E+00  0.00000000E+00  0.00000000E+00  0.00000000E+00
  0.00000000E+00  0.00000000E+00  0.00000000E+00  0.00000000E+00  0.00000000E+00
  0.00000000E+00  0.00000000E+00  0.00000000E+00  0.00000000E+00  0.00000000E+00
  0.00000000E+00  0.00000000E+00  0.00000000E+00  0.00000000E+00  0.00000000E+00
  0.00000000E+00  0.00000000E+00  0.00000000E+00  0.00000000E+00  0.00000000E+00
  0.00000000E+00  0.00000000E+00  0.00000000E+00  0.00000000E+00  0.00000000E+00
  0.00000000E+00  0.00000000E+00  0.00000000E+00  0.00000000E+00  0.00000000E+00
  0.00000000E+00  0.00000000E+00  0.00000000E+00  0.00000000E+00  0.00000000E+00
Coordinates of each shell                  R   N=         198
 -2.21083350E+00  2.68231610E+00 -1.94898036E-02 -2.21083350E+00  2.68231610E+00
 -1.94898036E-02 -2.21083350E+00  2.68231610E+00 -1.94898036E-02 -2.21083350E+00
  2.68231610E+00 -1.94898036E-02 -2.21083350E+00  2.68231610E+00 -1.94898036E-02
 -2.21083350E+00  2.68231610E+00 -1.94898036E-02 -2.73516566E-02  3.47264645E+00
  2.09462022E-02 -2.73516566E-02  3.47264645E+00  2.09462022E-02 -2.73516566E-02
  3.47264645E+00  2.09462022E-02 -2.73516566E-02  3.47264645E+00  2.09462022E-02
 -2.73516566E-02  3.47264645E+00  2.09462022E-02 -2.73516566E-02  3.47264645E+00
  2.09462022E-02  3.42017954E+00  5.81657474E-01  2.34227229E-02  3.42017954E+00
  5.81657474E-01  2.34227229E-02  3.42017954E+00  5.81657474E-01  2.34227229E-02
  3.42017954E+00  5.81657474E-01  2.34227229E-02  3.42017954E+00  5.81657474E-01
  2.34227229E-02  3.42017954E+00  5.81657474E-01  2.34227229E-02 -2.98682691E+00
 -1.75289069E+00 -3.15573688E-02 -2.98682691E+00 -1.75289069E+00 -3.15573688E-02
 -2.98682691E+00 -1.75289069E+00 -3.15573688E-02 -2.98682691E+00 -1.75289069E+00
 -3.15573688E-02 -2.98682691E+00 -1.75289069E+00 -3.15573688E-02 -2.98682691E+00
 -1.75289069E+00 -3.15573688E-02  3.02671640E+00 -1.70474940E+00 -3.06670474E-02
  3.02671640E+00 -1.70474940E+00 -3.06670474E-02  3.02671640E+00 -1.70474940E+00
 -3.06670474E-02  3.02671640E+00 -1.70474940E+00 -3.06670474E-02  3.02671640E+00
 -1.70474940E+00 -3.06670474E-02  3.02671640E+00 -1.70474940E+00 -3.06670474E-02
 -1.21319141E+00 -3.24787108E+00  4.00887186E-02 -1.21319141E+00 -3.24787108E+00
  4.00887186E-02 -1.21319141E+00 -3.24787108E+00  4.00887186E-02 -1.21319141E+00
 -3.24787108E+00  4.00887186E-02 -1.21319141E+00 -3.24787108E+00  4.00887186E-02
 -1.21319141E+00 -3.24787108E+00  4.00887186E-02  1.54399110E+00  4.68903136E+00
  3.25423051E-01  1.54399110E+00  4.68903136E+00  3.25423051E-01  1.54399110E+00
  4.68903136E+00  3.25423051E-01  1.54399110E+00  4.68903136E+00  3.25423051E-01
  1.54399110E+00  4.68903136E+00  3.25423051E-01 -4.19905689E+00  2.64348095E+00
 -3.11986717E-01 -4.19905689E+00  2.64348095E+00 -3.11986717E-01 -4.19905689E+00
  2.64348095E+00 -3.11986717E-01 -4.19905689E+00  2.64348095E+00 -3.11986717E-01
 -4.19905689E+00  2.64348095E+00 -3.11986717E-01 -4.85319251E+00 -1.01515750E+00
 -9.57355692E-02 -4.85319251E+00 -1.01515750E+00 -9.57355692E-02 -4.85319251E+00
 -1.01515750E+00 -9.57355692E-02 -4.85319251E+00 -1.01515750E+00 -9.57355692E-02
 -4.85319251E+00 -1.01515750E+00 -9.57355692E-02  4.40373232E+00  2.33282131E+00
  1.12740846E-02  4.40373232E+00  2.33282131E+00  1.12740846E-02  4.40373232E+00
  2.33282131E+00  1.12740846E-02  4.40373232E+00  2.33282131E+00  1.12740846E-02
  4.40373232E+00  2.33282131E+00  1.12740846E-02 -1.71205169E-01 -4.95805460E+00
  1.98863800E-01 -1.71205169E-01 -4.95805460E+00  1.98863800E-01 -1.71205169E-01
 -4.95805460E+00  1.98863800E-01 -1.71205169E-01 -4.95805460E+00  1.98863800E-01
 -1.71205169E-01 -4.95805460E+00  1.98863800E-01  3.31243887E+00 -3.69083926E+00
 -1.20913194E-01  3.31243887E+00 -3.69083926E+00 -1.20913194E-01  3.31243887E+00
 -3.69083926E+00 -1.20913194E-01  3.31243887E+00 -3.69083926E+00 -1.20913194E-01
  3.31243887E+00 -3.69083926E+00 -1.20913194E-01
Constraint Structure                       R   N=          36
 -2.17649963E+00  2.58242036E+00  0.00000000E+00  0.00000000E+00  3.37712201E+00
  0.00000000E+00  3.32495423E+00  5.93810532E-01  0.00000000E+00 -2.92512787E+00
 -1.68849487E+00  0.00000000E+00  2.92594801E+00 -1.68850620E+00  0.00000000E+00
 -1.14915191E+00 -3.17653325E+00  0.00000000E+00  1.37905599E+00  4.83989476E+00
  0.00000000E+00 -4.17366425E+00  2.81201642E+00  0.00000000E+00 -4.88125331E+00
 -1.22493182E+00  0.00000000E+00  4.52175937E+00  2.20903883E+00  0.00000000E+00
 -3.48199048E-01 -5.02034471E+00  0.00000000E+00  3.50156804E+00 -3.61458500E+00
  0.00000000E+00
Num ILSW                                   I              100
ILSW                                       I   N=         100
           0           0           0           0           2           0
           0           0           0           0           0          -1
           0           0           0           0           0           0
           0           0           0           0           0           1
           0           1           0           0           0           0
           0           0      100000           0          -1           0
           0           0           0           0           0           0
           0           0           0           1           1           0
           0           0           1           0           0           0
           0           0           4          40           0           0
           0           0           0           0           0           0
           0           0           0           0           0           0
           0           0           0           0           0           0
           0           0           0           0           0           0
           0           0           0           0           0           0
           0           0           0           0           0           0
           0           0           0           0
Num RLSW                                   I               40
RLSW                                       R   N=          40
  1.00000000E+00  1.00000000E+00  1.00000000E+00  1.00000000E+00  1.00000000E+00
  0.00000000E+00  0.00000000E+00  1.00000000E+00  0.00000000E+00  0.00000000E+00
  0.00000000E+00  0.00000000E+00  1.00000000E+00  0.00000000E+00  0.00000000E+00
  0.00000000E+00  0.00000000E+00  1.00000000E+00  0.00000000E+00  0.00000000E+00
  0.00000000E+00  0.00000000E+00  1.00000000E+00  0.00000000E+00  0.00000000E+00
  0.00000000E+00  0.00000000E+00  1.00000000E+00  0.00000000E+00  0.00000000E+00
  0.00000000E+00  0.00000000E+00  0.00000000E+00  0.00000000E+00  0.00000000E+00
  0.00000000E+00  0.00000000E+00  0.00000000E+00  1.00000000E+00  1.00000000E+00
MxBond                                     I                2
NBond                                      I   N=          12
           2           2           2           2           2           2
           1           1           1           1           1           1
IBond                                      I   N=          24
           2           8           1           7           5          10
           6           9           3          12           4          11
           2           0           1           0           4           0
           3           0           6           0           5           0
RBond                                      R   N=          24
  3.00000000E+00  1.00000000E+00  3.00000000E+00  1.00000000E+00  3.00000000E+00
  1.00000000E+00  3.00000000E+00  1.00000000E+00  3.00000000E+00  1.00000000E+00
  3.00000000E+00  1.00000000E+00  1.00000000E+00  0.00000000E+00  1.00000000E+00
  0.00000000E+00  1.00000000E+00  0.00000000E+00  1.00000000E+00  0.00000000E+00
  1.00000000E+00  0.00000000E+00  1.00000000E+00  0.00000000E+00
Virial Ratio                               R      2.001403071348072E+00
SCF Energy                                 R     -2.304090813164868E+02
MP2 Energy                                 R     -2.312755348373240E+02
Total Energy                               R     -2.312755348373240E+02
Post-SCF wavefunction norm                 R      1.167958174045563E+00
RMS Force                                  R      6.846286222200635E-03
RMS Density                                R      7.891087755144820E-09
External E-field                           R   N=          35
  0.00000000E+00  0.00000000E+00  0.00000000E+00  0.00000000E+00  0.00000000E+00
  0.00000000E+00  0.00000000E+00  0.00000000E+00  0.00000000E+00  0.00000000E+00
  0.00000000E+00  0.00000000E+00  0.00000000E+00  0.00000000E+00  0.00000000E+00
  0.00000000E+00  0.00000000E+00  0.00000000E+00  0.00000000E+00  0.00000000E+00
  0.00000000E+00  0.00000000E+00  0.00000000E+00  0.00000000E+00  0.00000000E+00
  0.00000000E+00  0.00000000E+00  0.00000000E+00  0.00000000E+00  0.00000000E+00
  0.00000000E+00  0.00000000E+00  0.00000000E+00  0.00000000E+00  0.00000000E+00
IOpCl                                      I                0
IROHF                                      I                0
Alpha Orbital Energies                     R   N=         174
 -1.12403559E+01 -1.12398478E+01 -1.12397732E+01 -1.12370906E+01 -1.12365386E+01
 -1.12364881E+01 -1.03991342E+00 -1.01165126E+00 -1.01148121E+00 -7.94246754E-01
 -7.94098883E-01 -7.20920062E-01 -7.03729896E-01 -6.50819856E-01 -6.49712997E-01
 -4.77486564E-01 -4.21147769E-01 -3.85396787E-01 -3.85119980E-01 -3.47446002E-01
 -3.47373020E-01  4.25496553E-02  4.38642850E-02  4.43023003E-02  6.48050303E-02
  6.51974751E-02  8.55188819E-02  1.06477379E-01  1.09205625E-01  1.18441298E-01
  1.26483094E-01  1.38116647E-01  1.46698128E-01  1.62759893E-01  1.64734840E-01
  1.77312411E-01  1.78470697E-01  1.79368453E-01  1.86118451E-01  1.96019517E-01
  1.96581665E-01  1.98903904E-01  2.06559328E-01  2.19283550E-01  2.20599331E-01
  2.26254453E-01  2.26685876E-01  2.42330451E-01  2.44972545E-01  2.51233986E-01
  2.54114407E-01  2.77556447E-01  2.78952543E-01  2.81689755E-01  2.88970131E-01
  3.13694615E-01  3.39349385E-01  3.56722587E-01  3.59420998E-01  3.63284594E-01
  4.24661511E-01  4.36945445E-01  4.55991311E-01  5.46301243E-01  5.53176843E-01
  5.65793024E-01  6.04387964E-01  6.63944220E-01  6.73192416E-01  6.77804604E-01
  6.91429533E-01  7.46297132E-01  7.48402137E-01  7.88208011E-01  8.00635661E-01
  8.29386656E-01  8.29851862E-01  8.48575762E-01  8.75528135E-01  8.76216253E-01
  8.86566703E-01  9.08823832E-01  9.60053754E-01  9.63914688E-01  9.69191201E-01
  1.01302026E+00  1.01736611E+00  1.02323854E+00  1.07945467E+00  1.08085158E+00
  1.12242827E+00  1.15219112E+00  1.22120895E+00  1.26397797E+00  1.27250356E+00
  1.29448113E+00  1.29761678E+00  1.31078595E+00  1.38429874E+00  1.39820018E+00
  1.45700145E+00  1.45815369E+00  1.47619673E+00  1.48776457E+00  1.49157091E+00
  1.50844744E+00  1.62408234E+00  1.63412365E+00  1.65000895E+00  1.65807148E+00
  1.72242740E+00  1.89154897E+00  1.90810274E+00  1.91456637E+00  1.91634575E+00
  1.92081109E+00  1.92876810E+00  1.96226715E+00  1.97174996E+00  1.98536785E+00
  2.02024656E+00  2.03452270E+00  2.08582989E+00  2.10441384E+00  2.12154076E+00
  2.12324991E+00  2.23971688E+00  2.32184910E+00  2.32385558E+00  2.41033244E+00
  2.41794992E+00  2.46983716E+00  2.72005210E+00  2.75003171E+00  2.76256648E+00
  2.76853107E+00  2.77934346E+00  2.84112196E+00  2.91556575E+00  2.95819860E+00
  2.96355490E+00  3.05480344E+00  3.07055436E+00  3.08324107E+00  3.11705347E+00
  3.12177552E+00  3.15554129E+00  3.15727850E+00  3.18446016E+00  3.18969657E+00
  3.31162337E+00  3.34537200E+00  3.35838047E+00  3.38201325E+00  3.41183443E+00
  3.42695303E+00  3.43663014E+00  3.47764165E+00  3.48548068E+00  3.57297937E+00
  3.60361782E+00  3.77515920E+00  3.78412275E+00  3.83047962E+00  3.83508377E+00
  4.28515760E+00  4.32189270E+00  4.36381334E+00  2.46992850E+01  2.47614781E+01
  2.47642342E+01  2.61044446E+01  2.61331884E+01  2.61670041E+01
Alpha MO coefficients                      R   N=       30276
  3.78922371E-01  3.13791661E-01 -5.57689351E-05 -2.60113072E-04 -1.10849633E-04
  2.85131008E-03 -6.06416858E-05  3.60383233E-04  5.86007802E-05  4.40031329E-04
 -2.36201981E-04 -1.75929116E-04 -7.94832806E-05 -8.27889213E-04  8.05954187E-04
  2.42276251E-04  1.70101879E-04 -4.30716493E-04  1.87283201E-04  2.52042681E-05
  6.21258516E-04  3.45670587E-04  4.16520157E-01  3.44925799E-01  2.79176917E-04
 -1.84101965E-04  1.16951267E-04  3.20113511E-03 -3.56135907E-04  2.85506169E-04
 -5.26386100E-05  5.24973354E-04  3.51460494E-04 -7.05487783E-06  7.98702481E-05
 -1.30608417E-03 -7.55842514E-04 -2.04233958E-04 -1.69407853E-04 -4.95215871E-04
  1.70753240E-04  1.06114213E-04  5.42013536E-04  6.22679069E-04  1.57378545E-03
  1.30699169E-03 -8.25985440E-06  8.40238701E-06  6.60134651E-07  3.23354279E-07
  2.26597788E-06 -5.29327872E-05 -1.33379351E-06  3.08473958E-04 -6.36842889E-05
 -4.01306677E-04 -1.06277173E-05  1.13151952E-04 -7.76558340E-05  2.87711521E-04
  2.45009374E-05  2.25228202E-06  1.88315261E-06  9.92167219E-09 -4.03830537E-06
 -1.45049928E-06  1.50068165E-03  1.24637740E-03  8.98528103E-07  1.02278973E-05
 -6.08303234E-07 -3.60729520E-06  2.98701882E-05 -3.84001587E-05  1.50666752E-06
  3.68637824E-04  3.40478627E-04 -2.75084535E-04  1.74454105E-05  2.61323500E-04
 -7.00334494E-05  1.77409214E-04 -2.48281307E-05  3.13615053E-07  4.54942908E-07
  1.46063551E-06 -2.04579282E-06 -3.70913634E-06  3.14433746E-04  2.60807689E-04
  5.05596942E-06  4.32390404E-06 -5.85164772E-08  8.67351714E-06 -6.14026872E-06
 -3.78693871E-05 -1.41125213E-07 -4.73446304E-04 -1.75631913E-05 -2.76087639E-04
 -7.69622654E-06  3.46330005E-04  7.30062511E-05 -7.12653404E-06 -1.01350419E-05
  6.40780953E-06 -2.47367852E-07  6.64645481E-07  4.97665281E-06 -5.85869290E-06
  1.52435925E-04  1.26576547E-04 -7.09479097E-06  1.97566771E-07 -1.00926244E-07
  8.81247328E-06  2.91771872E-05 -2.61179344E-05  8.59380147E-07 -5.22680383E-04
  2.09087726E-04 -2.26007490E-04  1.04143452E-05  1.10872186E-04  2.21446427E-05
 -1.06109226E-04  1.55592664E-05  6.72441718E-06  3.19365338E-07 -8.87627799E-07
 -4.44423818E-06  6.42765446E-06  1.62918412E-04 -9.15147980E-04  5.50764245E-04
  5.15332981E-04  2.39272110E-04  2.84183257E-04  7.12799464E-05  1.49152617E-04
 -8.77658992E-04  5.48246644E-04  5.21256608E-04 -3.49610068E-04  6.50846356E-05
 -6.11772177E-05 -1.53449227E-05  1.08137405E-04  9.18272241E-05 -3.97192341E-05
  1.43039356E-05 -8.32737203E-06 -4.25607737E-07 -1.56608728E-05  1.09392441E-04
  6.52560382E-05 -6.52573927E-05 -6.22757823E-06 -1.64213073E-05  2.16957119E-06
  5.62217791E-06 -4.90965774E-05 -8.83812517E-05 -7.21778346E-05 -1.98683979E-06
 -9.36830568E-06  1.43365908E-06  5.55704271E-06 -4.66596768E-05 -7.79145691E-05
 -4.28266550E-05  7.63211565E-06 -6.17168931E-06 -3.80488032E-07 -1.77041580E-03
 -1.46531712E-03  3.82761903E-06  6.91640291E-06  9.21046748E-07 -1.01096805E-05
 -3.23776882E-05 -1.15029860E-05 -1.53514976E-06 -3.60257041E-04 -1.69856977E-04
 -3.58421752E-05 -4.73175340E-07  1.06536748E-03  1.66183701E-04  9.80038942E-05
 -6.52614993E-06  9.44562422E-06 -5.90316448E-08  4.66670713E-08 -7.28850227E-06
 -7.34655061E-06 -1.29419827E-04 -1.04058124E-04  6.76549662E-06 -4.21310274E-06
 -3.59584534E-07 -1.14212110E-05 -4.19991774E-05 -8.96912966E-06 -5.76694440E-07
  2.13093572E-04 -2.81889002E-04 -8.99804914E-05 -1.57427870E-05 -6.66414190E-04
  4.71568709E-04  1.10460672E-04  1.94668027E-05  1.45400694E-06 -3.01855496E-06
 -2.66772051E-06  5.63289117E-07 -1.47243366E-06  3.67957055E-01  3.04713265E-01
 -1.99727210E-04  1.66326980E-04  2.06340148E-05  2.74548432E-03  3.59061963E-04
 -7.43753622E-05 -2.71311541E-05  4.95993048E-04 -6.75096071E-05  1.70563400E-04
  4.27333948E-06  3.72661169E-04 -3.22168122E-04 -1.20280529E-03 -8.33021332E-06
 -4.23103513E-04  1.30312051E-06  1.91160196E-05 -5.85427507E-04  3.53634631E-04
  7.12221232E-03  5.89825716E-03  1.28040213E-06 -1.00641980E-06 -4.96363685E-07
  6.29545293E-05 -3.00716481E-05  1.72531948E-05 -5.33961927E-07 -5.30920741E-04
 -2.82836352E-04  1.95959733E-04 -9.83284202E-06 -3.96261477E-04 -2.25972330E-04
  4.92828720E-05 -2.89650012E-06 -1.33177598E-06  5.72213308E-07 -2.47885638E-07
  7.05363742E-06 -4.88078559E-06  4.26099999E-01  3.52858184E-01 -3.26329701E-04
 -1.75763644E-04  2.60183663E-05  3.31020368E-03  4.56461321E-04  2.16709661E-04
 -2.94488336E-05  4.26517452E-04 -2.01966652E-04 -3.93536273E-04  5.13527379E-06
 -2.53636691E-03  2.03659375E-04  4.06870803E-04 -3.29336875E-06 -5.30960273E-04
  4.03081599E-06  5.09081630E-05 -8.57117511E-04  1.56708106E-04  8.03920624E-03
  6.66100448E-03  1.63652422E-05  4.24427899E-06 -3.74238938E-07  5.03465644E-05
 -5.26509312E-05  2.16070645E-05 -4.87411116E-07  3.83201159E-04 -3.52926324E-04
  2.88844318E-04 -1.63919536E-05  8.24405484E-04  1.33091451E-04  1.13686663E-04
 -9.94249982E-06 -5.11701738E-06  1.21904443E-06  4.33611888E-07  2.05338143E-06
 -1.62825506E-05 -1.34535354E-05  8.49170418E-05  3.11241769E-05 -1.12031123E-04