 Entering Gaussian System, Link 0=g09
 Initial command:
 /apps/software//g09/l1.exe /scratch/itamar/2718.cluster.abaxnet/Gau-11840.inp -scrdir=/scratch/itamar/2718.cluster.abaxnet/
 Entering Link 1 = /apps/software//g09/l1.exe PID=     11841.
  
 Copyright (c) 1988,1990,1992,1993,1995,1998,2003,2009, Gaussian, Inc.
                  All Rights Reserved.
  
 This is part of the Gaussian(R) 09 program.  It is based on
 the Gaussian(R) 03 system (copyright 2003, Gaussian, Inc.),
 the Gaussian(R) 98 system (copyright 1998, Gaussian, Inc.),
 the Gaussian(R) 94 system (copyright 1995, Gaussian, Inc.),
 the Gaussian 92(TM) system (copyright 1992, Gaussian, Inc.),
 the Gaussian 90(TM) system (copyright 1990, Gaussian, Inc.),
 the Gaussian 88(TM) system (copyright 1988, Gaussian, Inc.),
 the Gaussian 86(TM) system (copyright 1986, Carnegie Mellon
 University), and the Gaussian 82(TM) system (copyright 1983,
 Carnegie Mellon University). Gaussian is a federally registered
 trademark of Gaussian, Inc.
  
 This software contains proprietary and confidential information,
 including trade secrets, belonging to Gaussian, Inc.
  
 This software is provided under written license and may be
 used, copied, transmitted, or stored only in accord with that
 written license.
  
 The following legend is applicable only to US Government
 contracts under FAR:
  
                    RESTRICTED RIGHTS LEGEND
  
 Use, reproduction and disclosure by the US Government is
 subject to restrictions as set forth in subparagraphs (a)
 and (c) of the Commercial Computer Software - Restricted
 Rights clause in FAR 52.227-19.
  
 Gaussian, Inc.
 340 Quinnipiac St., Bldg. 40, Wallingford CT 06492
  
  
 ---------------------------------------------------------------
 Warning -- This program may not be used in any manner that
 competes with the business of Gaussian, Inc. or will provide
 assistance to any competitor of Gaussian, Inc.  The licensee
 of this program is prohibited from giving any competitor of
 Gaussian, Inc. access to this program.  By using this program,
 the user acknowledges that Gaussian, Inc. is engaged in the
 business of creating and licensing software in the field of
 computational chemistry and represents and warrants to the
 licensee that it is not a competitor of Gaussian, Inc. and that
 it will not use this program in any manner prohibited above.
 ---------------------------------------------------------------
  

 Cite this work as:
 Gaussian 09, Revision A.02,
 M. J. Frisch, G. W. Trucks, H. B. Schlegel, G. E. Scuseria, 
 M. A. Robb, J. R. Cheeseman, G. Scalmani, V. Barone, B. Mennucci, 
 G. A. Petersson, H. Nakatsuji, M. Caricato, X. Li, H. P. Hratchian, 
 A. F. Izmaylov, J. Bloino, G. Zheng, J. L. Sonnenberg, M. Hada, 
 M. Ehara, K. Toyota, R. Fukuda, J. Hasegawa, M. Ishida, T. Nakajima, 
 Y. Honda, O. Kitao, H. Nakai, T. Vreven, J. A. Montgomery, Jr., 
 J. E. Peralta, F. Ogliaro, M. Bearpark, J. J. Heyd, E. Brothers, 
 K. N. Kudin, V. N. Staroverov, R. Kobayashi, J. Normand, 
 K. Raghavachari, A. Rendell, J. C. Burant, S. S. Iyengar, J. Tomasi, 
 M. Cossi, N. Rega, J. M. Millam, M. Klene, J. E. Knox, J. B. Cross, 
 V. Bakken, C. Adamo, J. Jaramillo, R. Gomperts, R. E. Stratmann, 
 O. Yazyev, A. J. Austin, R. Cammi, C. Pomelli, J. W. Ochterski, 
 R. L. Martin, K. Morokuma, V. G. Zakrzewski, G. A. Voth, 
 P. Salvador, J. J. Dannenberg, S. Dapprich, A. D. Daniels, 
 O. Farkas, J. B. Foresman, J. V. Ortiz, J. Cioslowski, 
 and D. J. Fox, Gaussian, Inc., Wallingford CT, 2009.
 
 ******************************************
 Gaussian 09:  EM64L-G09RevA.02 11-Jun-2009
                 7-Dec-2021 
 ******************************************
 %Mem=3800MB
 %NProcShared=6
 Will use up to    6 processors via shared memory.
 %chk=/home/itamar/Aromaticity-test-set/T14-old-T15-Acetylene-Trimerization/IRC2/
 at-ts.chk
 ------------------------------------------
 #P MP2/6-311++G** IRC=(CalcFC,MaxCycle=50)
 ------------------------------------------
 1/6=50,10=4,18=20,38=1,44=3/1,23;
 2/9=110,12=2,17=6,18=5,29=1,40=1/2;
 3/5=4,6=6,7=1111,11=9,16=1,25=1,30=1,71=2/1,2,3;
 4//1;
 5/5=2,38=5/2;
 8/6=3,8=1,10=2,19=11,30=-1/1;
 9/15=3,16=-3/6;
 11/6=1,8=1,15=11,17=12,24=-1,27=1,28=-2,29=300,32=6,42=3/1,2,10;
 10/6=2,21=1/2;
 8/6=4,8=1,10=2,19=11,30=-1/11,4;
 10/5=1,20=4/2;
 11/12=2,14=11,16=1,17=2,28=-2,42=3/2,10,12;
 6/7=2,8=2,9=2,10=2/1;
 7/10=1,12=2,25=1,44=2/1,2,3,16;
 1/6=50,10=4,18=20,44=3/23(3);
 2/9=110,29=1/2;
 7/9=1,25=1,44=-1/16;
 99//99;
 2/9=110,29=1/2;
 3/5=4,6=6,7=1111,11=9,16=1,25=1,30=1,71=2/1,2,3;
 4/5=5,16=3/1;
 5/5=2,38=5/2;
 8/6=3,8=1,10=2,19=11,30=-1/1;
 9/15=3,16=-3/6;
 11/6=1,8=1,15=11,17=12,24=-1,27=1,28=-2,29=300,32=6,42=3/1,2,10;
 10/6=2,21=1/2;
 8/6=4,8=1,10=2,19=11,30=-1/11,4;
 10/5=1,20=4/2;
 11/12=2,14=11,16=1,17=2,28=-2,42=3/2,10,12;
 7/10=1,12=2,25=1,44=2/1,2,3,16;
 1/6=50,18=20,44=3/23(-12);
 2/9=110,29=1/2;
 6/7=2,8=2,9=2,10=2/1;
 7/9=1,25=1,44=-1/16;
 99//99;
 Leave Link    1 at Tue Dec  7 15:38:27 2021, MaxMem=  498073600 cpu:       0.3
 (Enter /apps/software//g09/l101.exe)
 -----------------------
 Acetylene trimerization
 -----------------------
 Symbolic Z-matrix:
 Charge =  0 Multiplicity = 1
 6                    -1.15175   1.36656   0. 
 6                     0.        1.7871    0. 
 6                     1.75949   0.31423   0. 
 6                    -1.54791  -0.89351   0. 
 6                     1.54835  -0.89352   0. 
 6                    -0.60811  -1.68095   0. 
 1                     0.72977   2.56116   0. 
 1                    -2.20861   1.48806   0. 
 1                    -2.58305  -0.64821   0. 
 1                     2.39281   1.16897   0. 
 1                    -0.18426  -2.65665   0. 
 1                     1.85295  -1.91276   0. 
 
 NAtoms=     12 NQM=     12 NQMF=      0 NMic=      0 NMicF=      0 NTot=     12.
                    Isotopes and Nuclear Properties:
 (Nuclear quadrupole moments (NQMom) in fm**2, nuclear magnetic moments (NMagM)
  in nuclear magnetons)

  Atom         1           2           3           4           5           6           7           8           9          10
 IAtWgt=          12          12          12          12          12          12           1           1           1           1
 AtmWgt=  12.0000000  12.0000000  12.0000000  12.0000000  12.0000000  12.0000000   1.0078250   1.0078250   1.0078250   1.0078250
 NucSpn=           0           0           0           0           0           0           1           1           1           1
 AtZEff=   0.0000000   0.0000000   0.0000000   0.0000000   0.0000000   0.0000000   0.0000000   0.0000000   0.0000000   0.0000000
 NQMom=    0.0000000   0.0000000   0.0000000   0.0000000   0.0000000   0.0000000   0.0000000   0.0000000   0.0000000   0.0000000
 NMagM=    0.0000000   0.0000000   0.0000000   0.0000000   0.0000000   0.0000000   2.7928460   2.7928460   2.7928460   2.7928460

  Atom        11          12
 IAtWgt=           1           1
 AtmWgt=   1.0078250   1.0078250
 NucSpn=           1           1
 AtZEff=   0.0000000   0.0000000
 NQMom=    0.0000000   0.0000000
 NMagM=    2.7928460   2.7928460
 Leave Link  101 at Tue Dec  7 15:38:28 2021, MaxMem=  498073600 cpu:       0.3
 (Enter /apps/software//g09/l123.exe)
 IRC-IRC-IRC-IRC-IRC-IRC-IRC-IRC-IRC-IRC-IRC-IRC-IRC-IRC-IRC-IRC-IRC-IRC
 ------------------------------------------------------------------------
 INPUT DATA FOR L123
 ------------------------------------------------------------------------
 GENERAL PARAMETERS:
 Follow reaction path in both directions.
 Maximum points per path      =  10
 Step size                    =   0.100 bohr
 Integration scheme           = HPC                                 
    Redo corrector integration= Yes                                 
    Max correction cycles     =  50
 Initial Hessian              = CalcFC
 Hessian eveluation           = All updating
    Hessian updating method   = Bofill                              
 ------------------------------------------------------------------------
 IRC-IRC-IRC-IRC-IRC-IRC-IRC-IRC-IRC-IRC-IRC-IRC-IRC-IRC-IRC-IRC-IRC-IRC
 Leave Link  123 at Tue Dec  7 15:38:28 2021, MaxMem=  498073600 cpu:       0.0
 (Enter /apps/software//g09/l202.exe)
                          Input orientation:                          
 ---------------------------------------------------------------------
 Center     Atomic      Atomic             Coordinates (Angstroms)
 Number     Number       Type             X           Y           Z
 ---------------------------------------------------------------------
      1          6           0       -1.151754    1.366558    0.000000
      2          6           0        0.000000    1.787096    0.000000
      3          6           0        1.759490    0.314231    0.000000
      4          6           0       -1.547911   -0.893513    0.000000
      5          6           0        1.548345   -0.893519    0.000000
      6          6           0       -0.608105   -1.680949    0.000000
      7          1           0        0.729765    2.561162    0.000000
      8          1           0       -2.208608    1.488055    0.000000
      9          1           0       -2.583048   -0.648206    0.000000
     10          1           0        2.392812    1.168973    0.000000
     11          1           0       -0.184259   -2.656652    0.000000
     12          1           0        1.852950   -1.912756    0.000000
 ---------------------------------------------------------------------
                    Distance matrix (angstroms):
                    1          2          3          4          5
     1  C    0.000000
     2  C    1.226128   0.000000
     3  C    3.095599   2.294588   0.000000
     4  C    2.294529   3.095431   3.521015   0.000000
     5  C    3.521148   3.095653   1.226068   3.096256   0.000000
     6  C    3.095618   3.520956   3.096167   1.226088   2.295718
     7  H    2.228720   1.063830   2.471646   4.137945   3.550337
     8  H    1.063815   2.228761   4.138075   2.471515   4.448212
     9  H    2.471412   3.550047   4.447912   1.063806   4.138670
    10  H    3.550069   2.471361   1.063805   4.447825   2.228676
    11  H    4.137906   4.447566   3.550254   2.228947   2.471954
    12  H    4.447712   4.137914   2.228947   3.550312   1.063780
                    6          7          8          9         10
     6  C    0.000000
     7  H    4.448078   0.000000
     8  H    3.550239   3.128193   0.000000
     9  H    2.228667   4.612458   2.168828   0.000000
    10  H    4.138545   2.168851   4.612470   5.297294   0.000000
    11  H    1.063787   5.297266   4.612655   3.128585   4.612668
    12  H    2.471948   4.612753   5.297336   4.612718   3.128659
                   11         12
    11  H    0.000000
    12  H    2.168779   0.000000
 Symmetry turned off by external request.
 Stoichiometry    C6H6
 Framework group  CS[SG(C6H6)]
 Deg. of freedom    21
 Full point group                 CS      NOp   2
 Rotational constants (GHZ):      3.7043387      3.7032198      1.8518896
 Leave Link  202 at Tue Dec  7 15:38:28 2021, MaxMem=  498073600 cpu:       0.0
 (Enter /apps/software//g09/l301.exe)
 Standard basis: 6-311++G(d,p) (5D, 7F)
 Ernie: Thresh=  0.10000D-02 Tol=  0.10000D-05 Strict=F.
 Integral buffers will be    131072 words long.
 Raffenetti 1 integral format.
 Two-electron integral symmetry is turned off.
   174 basis functions,   270 primitive gaussians,   180 cartesian basis functions
    21 alpha electrons       21 beta electrons
       nuclear repulsion energy       175.3114388694 Hartrees.
 IExCor=    0 DFT=F Ex=HF Corr=None ExCW=0 ScaHFX=  1.000000
 ScaDFX=  1.000000  1.000000  1.000000  1.000000 ScalE2=  1.000000  1.000000
 IRadAn=      0 IRanWt=     -1 IRanGd=            0 ICorTp=0
 NAtoms=   12 NActive=   12 NUniq=   12 SFac= 7.50D-01 NAtFMM=   80 NAOKFM=F Big=F
 Leave Link  301 at Tue Dec  7 15:38:28 2021, MaxMem=  498073600 cpu:       0.3
 (Enter /apps/software//g09/l302.exe)
 NPDir=0 NMtPBC=     1 NCelOv=     1 NCel=       1 NClECP=     1 NCelD=      1
         NCelK=      1 NCelE2=     1 NClLst=     1 CellRange=     0.0.
 One-electron integrals computed using PRISM.
 NBasis=   174 RedAO= T  NBF=   174
 NBsUse=   174 1.00D-06 NBFU=   174
 Leave Link  302 at Tue Dec  7 15:38:28 2021, MaxMem=  498073600 cpu:       1.3
 (Enter /apps/software//g09/l303.exe)
 DipDrv:  MaxL=1.
 Leave Link  303 at Tue Dec  7 15:38:28 2021, MaxMem=  498073600 cpu:       0.2
 (Enter /apps/software//g09/l401.exe)
 Harris functional with IExCor=  205 diagonalized for initial guess.
 ExpMin= 3.60D-02 ExpMax= 4.56D+03 ExpMxC= 6.82D+02 IAcc=3 IRadAn=         0 AccDes= 0.00D+00
 HarFok:  IExCor=  205 AccDes= 0.00D+00 IRadAn=         0 IDoV= 1
 ScaDFX=  1.000000  1.000000  1.000000  1.000000
 FoFCou: FMM=F IPFlag=           0 FMFlag=      100000 FMFlg1=           0
         NFxFlg=           0 DoJE=T BraDBF=F KetDBF=T FulRan=T
         Omega=  0.000000  0.000000  1.000000  0.000000  0.000000 ICntrl=     500 IOpCl=  0
         NMat0=    1 NMatS0=    1 NMatT0=    0 NMatD0=    1 NMtDS0=    0 NMtDT0=    0
         I1Cent=           4 NGrid=           0.
 Symmetry not used in FoFCou.
 Harris En= -230.864550164808    
 Leave Link  401 at Tue Dec  7 15:38:29 2021, MaxMem=  498073600 cpu:       4.0
 (Enter /apps/software//g09/l502.exe)
 Closed shell SCF:
 Requested convergence on RMS density matrix=1.00D-08 within 128 cycles.
 Requested convergence on MAX density matrix=1.00D-06.
 Requested convergence on             energy=1.00D-06.
 No special actions if energy rises.
 Using DIIS extrapolation, IDIIS=  1040.
 Two-electron integral symmetry not used.
 Keep R1 ints in memory in canonical form, NReq=135772519.
 IEnd=      117530 IEndB=      117530 NGot=   498073600 MDV=   365315068
 LenX=   365315068 LenY=   365282227
 Symmetry not used in FoFDir.
 MinBra= 0 MaxBra= 2 Meth= 1.
 IRaf=       0 NMat=   1 IRICut=       1 DoRegI=T DoRafI=F ISym2E= 0 JSym2E=0.

 Cycle   1  Pass 1  IDiag  1:
 E= -230.058175150803    
 DIIS: error= 6.44D-02 at cycle   1 NSaved=   1.
 NSaved= 1 IEnMin= 1 EnMin= -230.058175150803     IErMin= 1 ErrMin= 6.44D-02
 ErrMax= 6.44D-02 EMaxC= 1.00D-01 BMatC= 5.44D-01 BMatP= 5.44D-01
 IDIUse=3 WtCom= 3.56D-01 WtEn= 6.44D-01
 Coeff-Com:  0.100D+01
 Coeff-En:   0.100D+01
 Coeff:      0.100D+01
 Gap=     0.456 Goal=   None    Shift=    0.000
 GapD=    0.456 DampG=2.000 DampE=0.500 DampFc=1.0000 IDamp=-1.
 RMSDP=9.29D-03 MaxDP=2.58D-01              OVMax= 1.40D-01

 Cycle   2  Pass 1  IDiag  1:
 E= -230.354713777039     Delta-E=       -0.296538626236 Rises=F Damp=F
 DIIS: error= 1.88D-02 at cycle   2 NSaved=   2.
 NSaved= 2 IEnMin= 2 EnMin= -230.354713777039     IErMin= 2 ErrMin= 1.88D-02
 ErrMax= 1.88D-02 EMaxC= 1.00D-01 BMatC= 4.10D-02 BMatP= 5.44D-01
 IDIUse=3 WtCom= 8.12D-01 WtEn= 1.88D-01
 Coeff-Com:  0.147D+00 0.853D+00
 Coeff-En:   0.000D+00 0.100D+01
 Coeff:      0.119D+00 0.881D+00
 Gap=     0.410 Goal=   None    Shift=    0.000
 RMSDP=1.12D-02 MaxDP=3.51D-01 DE=-2.97D-01 OVMax= 5.04D-02

 Cycle   3  Pass 1  IDiag  1:
 E= -230.391347881702     Delta-E=       -0.036634104662 Rises=F Damp=F
 DIIS: error= 4.78D-03 at cycle   3 NSaved=   3.
 NSaved= 3 IEnMin= 3 EnMin= -230.391347881702     IErMin= 3 ErrMin= 4.78D-03
 ErrMax= 4.78D-03 EMaxC= 1.00D-01 BMatC= 2.24D-03 BMatP= 4.10D-02
 IDIUse=3 WtCom= 9.52D-01 WtEn= 4.78D-02
 Coeff-Com: -0.167D-01 0.155D+00 0.861D+00
 Coeff-En:   0.000D+00 0.000D+00 0.100D+01
 Coeff:     -0.159D-01 0.148D+00 0.868D+00
 Gap=     0.379 Goal=   None    Shift=    0.000
 RMSDP=1.09D-03 MaxDP=3.60D-02 DE=-3.66D-02 OVMax= 9.47D-03

 Cycle   4  Pass 1  IDiag  1:
 E= -230.393646264629     Delta-E=       -0.002298382927 Rises=F Damp=F
 DIIS: error= 6.65D-04 at cycle   4 NSaved=   4.
 NSaved= 4 IEnMin= 4 EnMin= -230.393646264629     IErMin= 4 ErrMin= 6.65D-04
 ErrMax= 6.65D-04 EMaxC= 1.00D-01 BMatC= 2.05D-05 BMatP= 2.24D-03
 IDIUse=3 WtCom= 9.93D-01 WtEn= 6.65D-03
 Coeff-Com: -0.229D-02 0.178D-02 0.589D-01 0.942D+00
 Coeff-En:   0.000D+00 0.000D+00 0.000D+00 0.100D+01
 Coeff:     -0.227D-02 0.177D-02 0.585D-01 0.942D+00
 Gap=     0.380 Goal=   None    Shift=    0.000
 RMSDP=3.03D-04 MaxDP=7.92D-03 DE=-2.30D-03 OVMax= 2.79D-03

 Cycle   5  Pass 1  IDiag  1:
 E= -230.393694272952     Delta-E=       -0.000048008324 Rises=F Damp=F
 DIIS: error= 3.04D-04 at cycle   5 NSaved=   5.
 NSaved= 5 IEnMin= 5 EnMin= -230.393694272952     IErMin= 5 ErrMin= 3.04D-04
 ErrMax= 3.04D-04 EMaxC= 1.00D-01 BMatC= 3.08D-06 BMatP= 2.05D-05
 IDIUse=3 WtCom= 9.97D-01 WtEn= 3.04D-03
 Coeff-Com:  0.144D-02-0.945D-02-0.683D-01-0.223D+00 0.130D+01
 Coeff-En:   0.000D+00 0.000D+00 0.000D+00 0.000D+00 0.100D+01
 Coeff:      0.143D-02-0.943D-02-0.680D-01-0.222D+00 0.130D+01
 Gap=     0.380 Goal=   None    Shift=    0.000
 RMSDP=8.54D-05 MaxDP=2.46D-03 DE=-4.80D-05 OVMax= 2.51D-03

 Cycle   6  Pass 1  IDiag  1:
 E= -230.393710451420     Delta-E=       -0.000016178468 Rises=F Damp=F
 DIIS: error= 1.29D-04 at cycle   6 NSaved=   6.
 NSaved= 6 IEnMin= 6 EnMin= -230.393710451420     IErMin= 6 ErrMin= 1.29D-04
 ErrMax= 1.29D-04 EMaxC= 1.00D-01 BMatC= 4.77D-07 BMatP= 3.08D-06
 IDIUse=3 WtCom= 9.99D-01 WtEn= 1.29D-03
 Coeff-Com: -0.496D-03 0.496D-02 0.277D-01 0.454D-02-0.616D+00 0.158D+01
 Coeff-En:   0.000D+00 0.000D+00 0.000D+00 0.000D+00 0.000D+00 0.100D+01
 Coeff:     -0.495D-03 0.496D-02 0.276D-01 0.454D-02-0.615D+00 0.158D+01
 Gap=     0.381 Goal=   None    Shift=    0.000
 RMSDP=3.08D-05 MaxDP=6.92D-04 DE=-1.62D-05 OVMax= 1.61D-03

 Cycle   7  Pass 1  IDiag  1:
 E= -230.393714116269     Delta-E=       -0.000003664849 Rises=F Damp=F
 DIIS: error= 4.13D-05 at cycle   7 NSaved=   7.
 NSaved= 7 IEnMin= 7 EnMin= -230.393714116269     IErMin= 7 ErrMin= 4.13D-05
 ErrMax= 4.13D-05 EMaxC= 1.00D-01 BMatC= 6.04D-08 BMatP= 4.77D-07
 IDIUse=1 WtCom= 1.00D+00 WtEn= 0.00D+00
 Coeff-Com: -0.139D-03 0.115D-02 0.611D-02 0.152D-01-0.102D+00-0.697D-01
 Coeff-Com:  0.115D+01
 Coeff:     -0.139D-03 0.115D-02 0.611D-02 0.152D-01-0.102D+00-0.697D-01
 Coeff:      0.115D+01
 Gap=     0.381 Goal=   None    Shift=    0.000
 RMSDP=1.75D-05 MaxDP=4.59D-04 DE=-3.66D-06 OVMax= 5.24D-04

 Cycle   8  Pass 1  IDiag  1:
 E= -230.393714442578     Delta-E=       -0.000000326309 Rises=F Damp=F
 DIIS: error= 1.96D-05 at cycle   8 NSaved=   8.
 NSaved= 8 IEnMin= 8 EnMin= -230.393714442578     IErMin= 8 ErrMin= 1.96D-05
 ErrMax= 1.96D-05 EMaxC= 1.00D-01 BMatC= 2.41D-08 BMatP= 6.04D-08
 IDIUse=1 WtCom= 1.00D+00 WtEn= 0.00D+00
 Coeff-Com:  0.485D-04-0.547D-03-0.365D-02 0.325D-02 0.102D+00-0.406D+00
 Coeff-Com:  0.550D+00 0.754D+00
 Coeff:      0.485D-04-0.547D-03-0.365D-02 0.325D-02 0.102D+00-0.406D+00
 Coeff:      0.550D+00 0.754D+00
 Gap=     0.381 Goal=   None    Shift=    0.000
 RMSDP=7.52D-06 MaxDP=2.65D-04 DE=-3.26D-07 OVMax= 1.99D-04

 Cycle   9  Pass 1  IDiag  1:
 E= -230.393714497757     Delta-E=       -0.000000055179 Rises=F Damp=F
 DIIS: error= 3.38D-06 at cycle   9 NSaved=   9.
 NSaved= 9 IEnMin= 9 EnMin= -230.393714497757     IErMin= 9 ErrMin= 3.38D-06
 ErrMax= 3.38D-06 EMaxC= 1.00D-01 BMatC= 6.20D-10 BMatP= 2.41D-08
 IDIUse=1 WtCom= 1.00D+00 WtEn= 0.00D+00
 Coeff-Com:  0.619D-05-0.364D-04-0.134D-03-0.378D-02 0.844D-03 0.658D-01
 Coeff-Com: -0.215D+00-0.137D+00 0.129D+01
 Coeff:      0.619D-05-0.364D-04-0.134D-03-0.378D-02 0.844D-03 0.658D-01
 Coeff:     -0.215D+00-0.137D+00 0.129D+01
 Gap=     0.381 Goal=   None    Shift=    0.000
 RMSDP=2.51D-06 MaxDP=9.54D-05 DE=-5.52D-08 OVMax= 4.54D-05

 Cycle  10  Pass 1  IDiag  1:
 E= -230.393714500550     Delta-E=       -0.000000002793 Rises=F Damp=F
 DIIS: error= 4.90D-07 at cycle  10 NSaved=  10.
 NSaved=10 IEnMin=10 EnMin= -230.393714500550     IErMin=10 ErrMin= 4.90D-07
 ErrMax= 4.90D-07 EMaxC= 1.00D-01 BMatC= 1.15D-11 BMatP= 6.20D-10
 IDIUse=1 WtCom= 1.00D+00 WtEn= 0.00D+00
 Coeff-Com: -0.239D-05 0.276D-04 0.162D-03 0.399D-03-0.340D-02 0.182D-02
 Coeff-Com:  0.217D-01-0.526D-03-0.247D+00 0.123D+01
 Coeff:     -0.239D-05 0.276D-04 0.162D-03 0.399D-03-0.340D-02 0.182D-02
 Coeff:      0.217D-01-0.526D-03-0.247D+00 0.123D+01
 Gap=     0.381 Goal=   None    Shift=    0.000
 RMSDP=2.01D-07 MaxDP=5.27D-06 DE=-2.79D-09 OVMax= 4.05D-06

 Cycle  11  Pass 1  IDiag  1:
 E= -230.393714500591     Delta-E=       -0.000000000041 Rises=F Damp=F
 DIIS: error= 6.03D-08 at cycle  11 NSaved=  11.
 NSaved=11 IEnMin=11 EnMin= -230.393714500591     IErMin=11 ErrMin= 6.03D-08
 ErrMax= 6.03D-08 EMaxC= 1.00D-01 BMatC= 2.56D-13 BMatP= 1.15D-11
 IDIUse=1 WtCom= 1.00D+00 WtEn= 0.00D+00
 Coeff-Com:  0.247D-06-0.407D-05-0.263D-04-0.196D-04 0.631D-03-0.130D-02
 Coeff-Com: -0.125D-02 0.223D-02 0.322D-01-0.288D+00 0.126D+01
 Coeff:      0.247D-06-0.407D-05-0.263D-04-0.196D-04 0.631D-03-0.130D-02
 Coeff:     -0.125D-02 0.223D-02 0.322D-01-0.288D+00 0.126D+01
 Gap=     0.381 Goal=   None    Shift=    0.000
 RMSDP=5.01D-08 MaxDP=1.14D-06 DE=-4.13D-11 OVMax= 4.38D-07

 Cycle  12  Pass 1  IDiag  1:
 E= -230.393714500592     Delta-E=       -0.000000000001 Rises=F Damp=F
 DIIS: error= 2.04D-08 at cycle  12 NSaved=  12.
 NSaved=12 IEnMin=12 EnMin= -230.393714500592     IErMin=12 ErrMin= 2.04D-08
 ErrMax= 2.04D-08 EMaxC= 1.00D-01 BMatC= 2.62D-14 BMatP= 2.56D-13
 IDIUse=1 WtCom= 1.00D+00 WtEn= 0.00D+00
 Coeff-Com:  0.130D-06-0.189D-05-0.116D-04-0.173D-04 0.270D-03-0.398D-03
 Coeff-Com: -0.996D-03 0.635D-03 0.163D-01-0.118D+00 0.373D+00 0.729D+00
 Coeff:      0.130D-06-0.189D-05-0.116D-04-0.173D-04 0.270D-03-0.398D-03
 Coeff:     -0.996D-03 0.635D-03 0.163D-01-0.118D+00 0.373D+00 0.729D+00
 Gap=     0.381 Goal=   None    Shift=    0.000
 RMSDP=6.32D-09 MaxDP=1.87D-07 DE=-8.53D-13 OVMax= 5.93D-08

 SCF Done:  E(RHF) =  -230.393714501     A.U. after   12 cycles
             Convg  =    0.6315D-08             -V/T =  2.0014
 KE= 2.300816636629D+02 PE=-8.872512184575D+02 EE= 2.514644014246D+02
 Leave Link  502 at Tue Dec  7 15:38:35 2021, MaxMem=  498073600 cpu:      34.2
 (Enter /apps/software//g09/l801.exe)
 ExpMin= 3.60D-02 ExpMax= 4.56D+03 ExpMxC= 6.82D+02 IAcc=3 IRadAn=         5 AccDes= 0.00D+00
 HarFok:  IExCor=  205 AccDes= 0.00D+00 IRadAn=         5 IDoV=-2
 ScaDFX=  1.000000  1.000000  1.000000  1.000000
 Largest valence mixing into a core orbital is  1.49D-04
 Largest core mixing into a valence orbital is  5.18D-05
 Range of M.O.s used for correlation:     7   174
 NBasis=   174 NAE=    21 NBE=    21 NFC=     6 NFV=     0
 NROrb=    168 NOA=    15 NOB=    15 NVA=   153 NVB=   153

 **** Warning!!: The largest alpha MO coefficient is  0.11943230D+03

 Leave Link  801 at Tue Dec  7 15:38:35 2021, MaxMem=  498073600 cpu:       1.2
 (Enter /apps/software//g09/l906.exe)
 Frozen-core derivative calculation, NFC=   6 NFV=   0.
 FulOut=F Deriv=T AODrv=T NAtomX=    12
   MMem=           0  MDisk=          15 MDiskD=          15
  W3Min=      657720 MinDsk=     2176070 NBas6D=         180
 NBas2D=       16542    NTT=       16290    LW2=     3000000
    MDV=   497710781 MDiskM=       38249 NBas2p=       16476
 Disk-based method using ON**2 memory for 15 occupieds at a time.
 Permanent disk used for amplitudes=    12765249 words.
 Estimated scratch disk usage=   170872344 words.
 IMap=   1   2   3   4   5   6   7   8   9  10  11  12  13  14  15  16  17  18  19  20
 IMap=  21
 Actual    scratch disk usage=   153604632 words.
 JobTyp=1 Pass  1:  I=   7 to  21 NPSUse=  6 ParTrn=T ParDer=T DoDerP=T.
 (rs|ai) integrals will be sorted in core.
 Spin components of T(2) and E(2):
     alpha-alpha T2 =       0.5023974610D-01 E2=     -0.1119361159D+00
     alpha-beta  T2 =       0.2724094444D+00 E2=     -0.6506410878D+00
     beta-beta   T2 =       0.5023974610D-01 E2=     -0.1119361159D+00
 The integrals were generated   1 times.
 ANorm=    0.1171703434D+01
 E2 =    -0.8745133196D+00 EUMP2 =    -0.23126822782021D+03
 Leave Link  906 at Tue Dec  7 15:42:46 2021, MaxMem=  498073600 cpu:    1503.1
 (Enter /apps/software//g09/l1101.exe)
 Using compressed Sx but separate Hx and Fx, NAtomX=    12.
 Will process  13 centers per pass.
 Leave Link 1101 at Tue Dec  7 15:42:46 2021, MaxMem=  498073600 cpu:       1.9
 (Enter /apps/software//g09/l1102.exe)
 Leave Link 1102 at Tue Dec  7 15:42:46 2021, MaxMem=  498073600 cpu:       0.1
 (Enter /apps/software//g09/l1110.exe)
 Forming Gx(P) for the SCF density, NAtomX=    12.
 Integral derivatives from FoFDir/FoFCou, PRISM(SPDF).
 Do as many integral derivatives as possible in FoFDir.
 G2DrvN: MDV=     498073400.
 G2DrvN: will do    13 centers at a time, making    1 passes doing MaxLOS=2.
 Calling FoFCou, ICntrl=  3107 FMM=F I1Cent=   0 AccDes= 0.00D+00.
 FoFCou: FMM=F IPFlag=           0 FMFlag=      100000 FMFlg1=           0
         NFxFlg=           0 DoJE=F BraDBF=F KetDBF=F FulRan=T
         Omega=  0.000000  0.000000  1.000000  0.000000  0.000000 ICntrl=    3107 IOpCl=  0
         NMat0=    1 NMatS0=    1 NMatT0=    0 NMatD0=    1 NMtDS0=    0 NMtDT0=    0
         I1Cent=           0 NGrid=           0.
 Symmetry not used in FoFCou.
 FoFDir/FoFCou used for L=0 through L=2.
 End of G2Drv Frequency-dependent properties file   721 does not exist.
 End of G2Drv Frequency-dependent properties file   722 does not exist.
 Leave Link 1110 at Tue Dec  7 15:42:56 2021, MaxMem=  498073600 cpu:      56.3
 (Enter /apps/software//g09/l1002.exe)
 Minotr:  Closed shell wavefunction.
          IDoAtm=111111111111
          Frozen-core window.
          Direct CPHF calculation.
          Differentiating once with respect to electric field.
                with respect to dipole field.
          Differentiating once with respect to nuclear coordinates.
          Requested convergence is 1.0D-08 RMS, and 1.0D-07 maximum.
          Secondary convergence is 1.0D-12 RMS, and 1.0D-12 maximum.
          NewPWx=T KeepS1=T KeepF1=T KeepIn=T MapXYZ=F SortEE=F KeepMc=T.
          MDV=     498073476 using IRadAn=       2.
          Keep R1 ints in memory in canonical form, NReq=133511598.
 Symmetry not used in FoFDir.
 MinBra= 0 MaxBra= 2 Meth= 1.
 IRaf=       0 NMat=   1 IRICut=       1 DoRegI=T DoRafI=F ISym2E= 0 JSym2E=0.
          Solving linear equations simultaneously, MaxMat=       0.
          There are    39 degrees of freedom in the 1st order CPHF.  IDoFFX=5.
     36 vectors produced by pass  0 Test12= 8.24D-15 2.56D-09 XBig12= 3.92D+01 2.48D+00.
 AX will form    36 AO Fock derivatives at one time.
     36 vectors produced by pass  1 Test12= 8.24D-15 2.56D-09 XBig12= 3.94D+00 4.87D-01.
     36 vectors produced by pass  2 Test12= 8.24D-15 2.56D-09 XBig12= 8.65D-02 4.75D-02.
     36 vectors produced by pass  3 Test12= 8.24D-15 2.56D-09 XBig12= 8.19D-04 3.73D-03.
     36 vectors produced by pass  4 Test12= 8.24D-15 2.56D-09 XBig12= 8.05D-06 3.98D-04.
     36 vectors produced by pass  5 Test12= 8.24D-15 2.56D-09 XBig12= 7.17D-08 5.02D-05.
     36 vectors produced by pass  6 Test12= 8.24D-15 2.56D-09 XBig12= 5.09D-10 3.04D-06.
     18 vectors produced by pass  7 Test12= 8.24D-15 2.56D-09 XBig12= 3.10D-12 3.23D-07.
      3 vectors produced by pass  8 Test12= 8.24D-15 2.56D-09 XBig12= 1.64D-14 2.39D-08.
 Inverted reduced A of dimension   273 with in-core refinement.
 FullF1:  Do perturbations    1 to    39.
 Saving first derivative matrices.
 End of Minotr Frequency-dependent properties file   721 does not exist.
 End of Minotr Frequency-dependent properties file   722 does not exist.
 Leave Link 1002 at Tue Dec  7 15:43:17 2021, MaxMem=  498073600 cpu:     123.7
 (Enter /apps/software//g09/l811.exe)
 MDV=   498073600.
 Form MO integral derivatives with frozen-active canonical formalism.
 MOERI=1 MOERIx=1 NAtoms=    12 NAtomX=    12.
 Discarding MO integrals.
 MO basis two electron integral derivatives will not be stored on disk.
 IAlg= 3 DoFC=T DoPWx=T Debug=F.
 Frozen-core window:  NFC=   6 NFV=   0.
 Reordered first order wavefunction length =     20646738
 In DefCFB: NBatch=  1 ICI= 21 ICA=153 LFMax= 39
            Large arrays: LIAPS=   402524640 LIARS=    93112740 words.
 In StABat: MaxSiz= 23 MinSiz= 21 NAtomB=  8
 DoIAMN: NPSUse=  6.
 Leave Link  811 at Tue Dec  7 15:48:02 2021, MaxMem=  498073600 cpu:    1704.0
 (Enter /apps/software//g09/l804.exe)
 Frozen-core window:  NFC=   6 NFV=   0.
 Closed-shell transformation, MDV=   498073600 ITran=4 ISComp=1.
 Semi-Direct transformation.
 ModeAB=           4 MOrb=            21 LenV=     497235494
 LASXX=     50822898 LTotXX=    50822898 LenRXX=   102515595
 LTotAB=    51692697 MaxLAS=    59359230 LenRXY=           0
 NonZer=   153338493 LenScr=   230909952 LnRSAI=    59359230
 LnScr1=    89800704 LExtra=           0 Total=    482585481
 MaxDsk=          -1 SrtSym=           T ITran=            4
 DoSDTr:  NPSUse=  6
 JobTyp=0 Pass  1:  I=   1 to  21.
 (rs|ai) integrals will be sorted in core.
 Complete sort for first half transformation.
 First half transformation complete.
 Begin second half transformation for I=  10.
 Begin second half transformation for I=  20.
 Complete sort for second half transformation.
 Second half transformation complete.
 Spin components of T(2) and E(2):
     alpha-alpha T2 =       0.5023974610D-01 E2=     -0.1119361159D+00
     alpha-beta  T2 =       0.2724094444D+00 E2=     -0.6506410878D+00
     beta-beta   T2 =       0.5023974610D-01 E2=     -0.1119361159D+00
 ANorm=    0.1657038887D+01
 E2 =    -0.8745133196D+00 EUMP2 =    -0.23126822782021D+03
 Leave Link  804 at Tue Dec  7 15:48:24 2021, MaxMem=  498073600 cpu:     130.6
 (Enter /apps/software//g09/l1002.exe)
 Minotr:  Closed shell wavefunction.
          Computing MP2/KS-MP2 derivatives.
          Using Z-Vector for PSCF gradient.
          Skipping F1 and S1 gradient terms here.
          IDoAtm=111111111111
          Frozen-core window.
          Using MO integrals in the linear equations.
          Forming densities via direct SCF.
          Differentiating once with respect to electric field.
                with respect to dipole field.
          Differentiating once with respect to nuclear coordinates.
          Requested convergence is 1.0D-10 RMS, and 1.0D-09 maximum.
          NewPWx=F KeepS1=T KeepF1=T KeepIn=T MapXYZ=F SortEE=F KeepMc=T.
          MDV=     498073476 using IRadAn=       0.
          Solving linear equations separately, MaxMat=       0.
          There are     1 degrees of freedom in the 1st order CPHF.  IDoFFX=0.
 Symmetry not used in FoFDir.
 MinBra= 0 MaxBra= 2 Meth= 1.
 IRaf=       0 NMat=   1 IRICut=       1 DoRegI=T DoRafI=F ISym2E= 0 JSym2E=0.
 LinEq1:  Iter=  0 NonCon=     1 RMS=4.11D-03 Max=4.78D-02
 LinEq1:  Iter=  1 NonCon=     1 RMS=9.74D-04 Max=1.25D-02
 LinEq1:  Iter=  2 NonCon=     1 RMS=2.73D-04 Max=3.68D-03
 LinEq1:  Iter=  3 NonCon=     1 RMS=4.64D-05 Max=6.45D-04
 LinEq1:  Iter=  4 NonCon=     1 RMS=5.82D-06 Max=7.66D-05
 LinEq1:  Iter=  5 NonCon=     1 RMS=1.34D-06 Max=1.41D-05
 LinEq1:  Iter=  6 NonCon=     1 RMS=3.57D-07 Max=7.03D-06
 LinEq1:  Iter=  7 NonCon=     1 RMS=2.10D-07 Max=5.53D-06
 LinEq1:  Iter=  8 NonCon=     1 RMS=5.52D-08 Max=8.86D-07
 LinEq1:  Iter=  9 NonCon=     1 RMS=1.05D-08 Max=1.59D-07
 LinEq1:  Iter= 10 NonCon=     1 RMS=2.19D-09 Max=2.77D-08
 LinEq1:  Iter= 11 NonCon=     1 RMS=9.40D-10 Max=1.64D-08
 LinEq1:  Iter= 12 NonCon=     1 RMS=3.75D-10 Max=4.58D-09
 LinEq1:  Iter= 13 NonCon=     0 RMS=6.48D-11 Max=8.56D-10
 Linear equations converged to 1.000D-10 1.000D-09 after    13 iterations.
 End of Minotr Frequency-dependent properties file   721 does not exist.
 End of Minotr Frequency-dependent properties file   722 does not exist.
 Leave Link 1002 at Tue Dec  7 15:48:29 2021, MaxMem=  498073600 cpu:      29.2
 (Enter /apps/software//g09/l1102.exe)
 Use density number 2.
 Symmetrizing basis deriv contribution to polar:
 IMax=3 JMax=2 DiffMx= 0.00D+00
 Leave Link 1102 at Tue Dec  7 15:48:29 2021, MaxMem=  498073600 cpu:       0.2
 (Enter /apps/software//g09/l1110.exe)
 Forming Gx(P) for generalized density number  2 NAtomX=    12.
 Integral derivatives from FoFDir/FoFCou, PRISM(SPDF).
 Do as many integral derivatives as possible in FoFDir.
 G2DrvN: MDV=     498073400.
 G2DrvN: will do    13 centers at a time, making    1 passes doing MaxLOS=2.
 Calling FoFCou, ICntrl=  3107 FMM=F I1Cent=   0 AccDes= 0.00D+00.
 FoFCou: FMM=F IPFlag=           0 FMFlag=      100000 FMFlg1=           0
         NFxFlg=           0 DoJE=F BraDBF=F KetDBF=F FulRan=T
         Omega=  0.000000  0.000000  1.000000  0.000000  0.000000 ICntrl=    3107 IOpCl=  0
         NMat0=    1 NMatS0=    1 NMatT0=    0 NMatD0=    1 NMtDS0=    0 NMtDT0=    0
         I1Cent=           0 NGrid=           0.
 Symmetry not used in FoFCou.
 FoFDir/FoFCou used for L=0 through L=2.
 End of G2Drv Frequency-dependent properties file   721 does not exist.
 End of G2Drv Frequency-dependent properties file   722 does not exist.
 Leave Link 1110 at Tue Dec  7 15:48:38 2021, MaxMem=  498073600 cpu:      56.3
 (Enter /apps/software//g09/l1112.exe)
 MP22nd: MDV=     498073600
 This link is doing NAtomX=    12 total of    39 degrees of freedom.
 Using ON3 I/O method in MakUI.
 Frozen-core window:  NFC=   6 NFV=   0.
 Using Ix for Sx.
 Use MO integrals over full window.
 Using OV2 memory method for fx*t*t/D, MaxI=    21 DoOO2=F NP=   6.
 R2 and R3 integrals will be kept in memory, NReq=   268345170.
 Symmetry not used in FoFDir.
 MinBra= 0 MaxBra= 2 Meth= 1.
 IRaf=       0 NMat=   1 IRICut=       1 DoRegI=T DoRafI=F ISym2E= 0 JSym2E=0.
 DD1Dir will call FoFMem   1 times, MxPair=       462
 NAB=   231 NAA=     0 NBB=     0.
 Discarding MO integrals.
 Leave Link 1112 at Tue Dec  7 15:52:53 2021, MaxMem=  498073600 cpu:    1508.1
 (Enter /apps/software//g09/l601.exe)
 Copying SCF densities to generalized density rwf, IOpCl= 0 IROHF=0.

 **********************************************************************

            Population analysis using the SCF density.

 **********************************************************************

 Alpha  occ. eigenvalues --  -11.23909 -11.23907 -11.23907 -11.23578 -11.23577
 Alpha  occ. eigenvalues --  -11.23575  -1.04490  -1.01325  -1.01322  -0.78362
 Alpha  occ. eigenvalues --   -0.78362  -0.71480  -0.69115  -0.64693  -0.64687
 Alpha  occ. eigenvalues --   -0.49155  -0.42439  -0.38323  -0.38319  -0.33766
 Alpha  occ. eigenvalues --   -0.33745
 Alpha virt. eigenvalues --    0.04318   0.04447   0.04447   0.06210   0.06212
 Alpha virt. eigenvalues --    0.08444   0.11184   0.11184   0.11742   0.11755
 Alpha virt. eigenvalues --    0.13395   0.14993   0.16528   0.16529   0.17648
 Alpha virt. eigenvalues --    0.17986   0.17987   0.18849   0.19451   0.19451
 Alpha virt. eigenvalues --    0.20367   0.20419   0.21776   0.21777   0.22904
 Alpha virt. eigenvalues --    0.22905   0.24411   0.24414   0.25089   0.25089
 Alpha virt. eigenvalues --    0.28304   0.28305   0.28658   0.29647   0.32561
 Alpha virt. eigenvalues --    0.35046   0.36346   0.38796   0.38805   0.43587
 Alpha virt. eigenvalues --    0.43589   0.48958   0.55369   0.56657   0.56662
 Alpha virt. eigenvalues --    0.63389   0.65053   0.66651   0.66651   0.67490
 Alpha virt. eigenvalues --    0.75250   0.75250   0.80018   0.81508   0.81518
 Alpha virt. eigenvalues --    0.83423   0.83426   0.87486   0.87488   0.88657
 Alpha virt. eigenvalues --    0.96899   0.98613   0.98622   1.02382   1.02876
 Alpha virt. eigenvalues --    1.04401   1.04402   1.09774   1.09777   1.16047
 Alpha virt. eigenvalues --    1.16049   1.23771   1.27190   1.27659   1.27662
 Alpha virt. eigenvalues --    1.29920   1.29922   1.36095   1.39938   1.46191
 Alpha virt. eigenvalues --    1.46219   1.48814   1.50245   1.50280   1.62065
 Alpha virt. eigenvalues --    1.62902   1.62912   1.62925   1.62941   1.72085
 Alpha virt. eigenvalues --    1.84458   1.91731   1.91736   1.93733   1.97651
 Alpha virt. eigenvalues --    1.97665   1.97918   1.97924   2.01776   2.09317
 Alpha virt. eigenvalues --    2.11424   2.11432   2.15940   2.15950   2.17109
 Alpha virt. eigenvalues --    2.28116   2.28164   2.28866   2.42015   2.42033
 Alpha virt. eigenvalues --    2.45290   2.71830   2.71854   2.74983   2.78845
 Alpha virt. eigenvalues --    2.78877   2.83500   2.96005   2.96018   2.97437
 Alpha virt. eigenvalues --    3.04875   3.04880   3.06131   3.10248   3.11693
 Alpha virt. eigenvalues --    3.14057   3.14077   3.15546   3.15549   3.26996
 Alpha virt. eigenvalues --    3.32739   3.32746   3.37500   3.42652   3.42706
 Alpha virt. eigenvalues --    3.46857   3.46871   3.48646   3.51940   3.51975
 Alpha virt. eigenvalues --    3.76467   3.80811   3.88509   3.88529   4.39386
 Alpha virt. eigenvalues --    4.39394   4.47569  24.70153  24.76083  24.76085
 Alpha virt. eigenvalues --   26.03997  26.04054  26.11844
          Condensed to atoms (all electrons):
              1          2          3          4          5          6
     1  C    6.596396  -0.600431   0.203615  -0.385641  -0.085539   0.204675
     2  C   -0.600431   6.595737  -0.385006   0.203834   0.204046  -0.085784
     3  C    0.203615  -0.385006   6.597463  -0.085328  -0.602498   0.204199
     4  C   -0.385641   0.203834  -0.085328   6.598403   0.204261  -0.603217
     5  C   -0.085539   0.204046  -0.602498   0.204261   6.598042  -0.385554
     6  C    0.204675  -0.085784   0.204199  -0.603217  -0.385554   6.598702
     7  H   -0.025445   0.393360  -0.039693  -0.007544  -0.012954   0.019967
     8  H    0.393488  -0.025517  -0.007557  -0.039750   0.019981  -0.012900
     9  H   -0.039818  -0.012920   0.019940   0.393609  -0.007476  -0.025682
    10  H   -0.012979  -0.039730   0.393529   0.019949  -0.025584  -0.007485
    11  H   -0.007479   0.019947  -0.012881  -0.025819  -0.039747   0.393775
    12  H    0.019968  -0.007512  -0.025723  -0.012888   0.393703  -0.039735
              7          8          9         10         11         12
     1  C   -0.025445   0.393488  -0.039818  -0.012979  -0.007479   0.019968
     2  C    0.393360  -0.025517  -0.012920  -0.039730   0.019947  -0.007512
     3  C   -0.039693  -0.007557   0.019940   0.393529  -0.012881  -0.025723
     4  C   -0.007544  -0.039750   0.393609   0.019949  -0.025819  -0.012888
     5  C   -0.012954   0.019981  -0.007476  -0.025584  -0.039747   0.393703
     6  C    0.019967  -0.012900  -0.025682  -0.007485   0.393775  -0.039735
     7  H    0.415764  -0.003786  -0.001107   0.000724   0.001378  -0.001106
     8  H   -0.003786   0.415797   0.000707  -0.001109  -0.001104   0.001379
     9  H   -0.001107   0.000707   0.415799   0.001376  -0.003808  -0.001103
    10  H    0.000724  -0.001109   0.001376   0.415791  -0.001103  -0.003803
    11  H    0.001378  -0.001104  -0.003808  -0.001103   0.415801   0.000693
    12  H   -0.001106   0.001379  -0.001103  -0.003803   0.000693   0.415790
 Mulliken atomic charges:
              1
     1  C   -0.260811
     2  C   -0.260024
     3  C   -0.260060
     4  C   -0.259869
     5  C   -0.260681
     6  C   -0.260962
     7  H    0.260441
     8  H    0.260372
     9  H    0.260483
    10  H    0.260425
    11  H    0.260348
    12  H    0.260338
 Sum of Mulliken atomic charges =   0.00000
 Mulliken charges with hydrogens summed into heavy atoms:
              1
     1  C   -0.000439
     2  C    0.000417
     3  C    0.000365
     4  C    0.000614
     5  C   -0.000343
     6  C   -0.000614
 Sum of Mulliken charges with hydrogens summed into heavy atoms =   0.00000
 APT atomic charges:
              1
     1  C   -0.157596
     2  C   -0.157582
     3  C   -0.157511
     4  C   -0.157486
     5  C   -0.157748
     6  C   -0.157773
     7  H    0.157571
     8  H    0.157584
     9  H    0.157566
    10  H    0.157570
    11  H    0.157700
    12  H    0.157703
 Sum of APT charges=   0.00000
 APT Atomic charges with hydrogens summed into heavy atoms:
              1
     1  C   -0.000012
     2  C   -0.000011
     3  C    0.000060
     4  C    0.000081
     5  C   -0.000045
     6  C   -0.000073
     7  H    0.000000
     8  H    0.000000
     9  H    0.000000
    10  H    0.000000
    11  H    0.000000
    12  H    0.000000
 Sum of APT charges=   0.00000
 Electronic spatial extent (au):  <R**2>=            637.5278
 Charge=              0.0000 electrons
 Dipole moment (field-independent basis, Debye):
    X=             -0.0001    Y=             -0.0001    Z=              0.0000  Tot=              0.0002
 Quadrupole moment (field-independent basis, Debye-Ang):
   XX=            -29.2159   YY=            -29.2098   ZZ=            -42.2813
   XY=             -0.0025   XZ=              0.0000   YZ=              0.0000
 Traceless Quadrupole moment (field-independent basis, Debye-Ang):
   XX=              4.3531   YY=              4.3592   ZZ=             -8.7123
   XY=             -0.0025   XZ=              0.0000   YZ=              0.0000
 Octapole moment (field-independent basis, Debye-Ang**2):
  XXX=            -19.0880  YYY=            -10.9326  ZZZ=              0.0000  XYY=             19.0833
  XXY=             10.9370  XXZ=              0.0000  XZZ=              0.0001  YZZ=              0.0001
  YYZ=              0.0000  XYZ=              0.0000
 Hexadecapole moment (field-independent basis, Debye-Ang**3):
 XXXX=           -379.7060 YYYY=           -379.5524 ZZZZ=            -53.2795 XXXY=             -0.0187
 XXXZ=              0.0000 YYYX=             -0.0249 YYYZ=              0.0000 ZZZX=              0.0000
 ZZZY=              0.0000 XXYY=           -126.5435 XXZZ=            -90.9831 YYZZ=            -90.9643
 XXYZ=              0.0000 YYXZ=              0.0000 ZZXY=             -0.0041
 N-N= 1.753114388694D+02 E-N=-8.872512185266D+02  KE= 2.300816636629D+02
  Exact polarizability:  85.995  -0.008  86.011   0.000   0.000  42.029
 Approx polarizability:  88.471  -0.016  88.504   0.000   0.000  40.568
 No NMR shielding tensors so no spin-rotation constants.
 Leave Link  601 at Tue Dec  7 15:52:53 2021, MaxMem=  498073600 cpu:       1.5
 (Enter /apps/software//g09/l701.exe)
 Compute integral second derivatives.
 ... and contract with generalized density number  2.
 Leave Link  701 at Tue Dec  7 15:52:54 2021, MaxMem=  498073600 cpu:       2.1
 (Enter /apps/software//g09/l702.exe)
 L702 exits ... SP integral derivatives will be done elsewhere.
 Leave Link  702 at Tue Dec  7 15:52:54 2021, MaxMem=  498073600 cpu:       0.1
 (Enter /apps/software//g09/l703.exe)
 Compute integral second derivatives, UseDBF=F ICtDFT=           0.
 Integral derivatives from FoFDir, PRISM(SPDF).
 Calling FoFJK, ICntrl=    100127 FMM=F ISym2X=0 I1Cent= 0 IOpClX= 0 NMat=1 NMatS=1 NMatT=0.
 FoFCou: FMM=F IPFlag=           0 FMFlag=      100000 FMFlg1=         800
         NFxFlg=           0 DoJE=F BraDBF=F KetDBF=F FulRan=T
         Omega=  0.000000  0.000000  1.000000  0.000000  0.000000 ICntrl=  100127 IOpCl=  0
         NMat0=    1 NMatS0=    1 NMatT0=    0 NMatD0=    1 NMtDS0=    0 NMtDT0=    0
         I1Cent=           0 NGrid=           0.
 Symmetry not used in FoFCou.
 Leave Link  703 at Tue Dec  7 15:53:23 2021, MaxMem=  498073600 cpu:     170.8
 (Enter /apps/software//g09/l716.exe)
 Dipole        =-2.65839015D-05-7.14812807D-05-2.67382889D-14
 Polarizability= 8.59953693D+01-8.20306947D-03 8.60111866D+01
                -1.15877961D-12 3.63977611D-12 4.20288274D+01
 -------------------------------------------------------------------
 Center     Atomic                   Forces (Hartrees/Bohr)
 Number     Number              X              Y              Z
 -------------------------------------------------------------------
      1        6          -0.021720437   -0.002537523    0.000000000
      2        6           0.018246095    0.012075077    0.000000000
      3        6           0.008674623    0.020124026    0.000000000
      4        6          -0.019577867    0.009772700    0.000000000
      5        6           0.001281017   -0.021871181    0.000000000
      6        6           0.013092053   -0.017539012    0.000000000
      7        1           0.002633582   -0.000464586    0.000000000
      8        1          -0.001722954   -0.002046022    0.000000000
      9        1          -0.000930201    0.002510438    0.000000000
     10        1          -0.000904577    0.002516187    0.000000000
     11        1           0.002629205   -0.000477597    0.000000000
     12        1          -0.001700537   -0.002062507    0.000000000
 -------------------------------------------------------------------
 Cartesian Forces:  Max     0.021871181 RMS     0.009002910
 Force constants in Cartesian coordinates: 
                1             2             3             4             5 
      1  0.127480D+01
      2  0.230516D+00  0.106306D+00
      3  0.000000D+00  0.000000D+00 -0.187392D-01
      4 -0.818188D+00 -0.239233D+00  0.000000D+00  0.101671D+01
      5 -0.331947D+00 -0.140305D+00  0.000000D+00  0.536650D+00  0.364362D+00
      6  0.000000D+00  0.000000D+00  0.380891D-01  0.000000D+00  0.000000D+00
      7 -0.231520D-01 -0.198182D-01  0.000000D+00  0.271307D-01 -0.131000D-01
      8  0.232412D-01  0.293308D-01  0.000000D+00 -0.524430D-01  0.154323D-01
      9  0.000000D+00  0.000000D+00 -0.337638D-01  0.000000D+00  0.000000D+00
     10 -0.100287D-01 -0.835790D-02  0.000000D+00  0.333990D-03 -0.462247D-02
     11  0.309851D-01  0.525942D-01  0.000000D+00 -0.476790D-01  0.584232D-02
     12  0.000000D+00  0.000000D+00  0.341180D-01  0.000000D+00  0.000000D+00
     13 -0.147285D-01 -0.262966D-01  0.000000D+00  0.271057D-01 -0.108320D-01
     14 -0.108024D-01 -0.213551D-01  0.000000D+00  0.322131D-01 -0.209364D-01
     15  0.000000D+00  0.000000D+00  0.292726D-01  0.000000D+00  0.000000D+00
     16  0.176938D-01  0.433917D-01  0.000000D+00 -0.357671D-01  0.141518D-01
     17  0.340680D-03 -0.115249D-01  0.000000D+00 -0.134064D-02 -0.323741D-03
     18  0.000000D+00  0.000000D+00 -0.337490D-01  0.000000D+00  0.000000D+00
     19 -0.519537D-02 -0.113005D-01  0.000000D+00 -0.208922D+00 -0.201517D+00
     20  0.189870D-01  0.114267D-01  0.000000D+00 -0.222326D+00 -0.217657D+00
     21  0.000000D+00  0.000000D+00 -0.716299D-02  0.000000D+00  0.000000D+00
     22 -0.421457D+00  0.297705D-01  0.000000D+00  0.550159D-02  0.629911D-02
     23  0.505704D-01 -0.515367D-02  0.000000D+00 -0.239792D-01  0.735559D-03
     24  0.000000D+00  0.000000D+00 -0.897591D-02  0.000000D+00  0.000000D+00
     25 -0.428103D-02 -0.512190D-02  0.000000D+00  0.397178D-02 -0.340487D-03
     26 -0.846322D-02 -0.154401D-01  0.000000D+00  0.568500D-02 -0.169678D-02
     27  0.000000D+00  0.000000D+00 -0.688517D-02  0.000000D+00  0.000000D+00
     28  0.425274D-02  0.535569D-02  0.000000D+00 -0.156130D-01  0.497839D-02
     29 -0.672030D-03 -0.197705D-02  0.000000D+00  0.831992D-02 -0.411022D-02
     30  0.000000D+00  0.000000D+00  0.534017D-02  0.000000D+00  0.000000D+00
     31 -0.247065D-02 -0.538550D-02  0.000000D+00  0.458938D-02 -0.275130D-02
     32 -0.217316D-02 -0.406302D-02  0.000000D+00  0.431266D-02 -0.166627D-02
     33  0.000000D+00  0.000000D+00  0.659151D-02  0.000000D+00  0.000000D+00
     34  0.275822D-02  0.648043D-02  0.000000D+00 -0.685303D-02  0.303082D-02
     35 -0.582368D-03  0.161491D-03  0.000000D+00 -0.180033D-03  0.322768D-03
     36  0.000000D+00  0.000000D+00 -0.413536D-02  0.000000D+00  0.000000D+00
                6             7             8             9            10 
      6 -0.187383D-01
      7  0.000000D+00  0.198497D+00
      8  0.000000D+00  0.390415D+00  0.118288D+01
      9  0.341237D-01  0.000000D+00  0.000000D+00 -0.187207D-01
     10  0.000000D+00 -0.363618D-02  0.437972D-02  0.000000D+00  0.992061D+00
     11  0.000000D+00  0.199123D-01 -0.324590D-01  0.000000D+00 -0.551095D+00
     12 -0.337601D-01  0.000000D+00  0.000000D+00  0.292673D-01  0.000000D+00
     13  0.000000D+00 -0.622888D-01 -0.104203D+00  0.000000D+00 -0.181211D-01
     14  0.000000D+00 -0.196829D+00 -0.896542D+00  0.000000D+00 -0.604175D-02
     15 -0.337501D-01  0.000000D+00  0.000000D+00  0.380504D-01  0.000000D+00
     16  0.000000D+00  0.147447D-01 -0.450430D-01  0.000000D+00 -0.557050D+00
     17  0.000000D+00 -0.204698D-02 -0.852384D-02  0.000000D+00  0.482840D+00
     18  0.292732D-01  0.000000D+00  0.000000D+00 -0.337181D-01  0.000000D+00
     19  0.000000D+00 -0.676794D-02  0.989952D-02  0.000000D+00 -0.238564D-03
     20  0.000000D+00  0.655142D-02 -0.129454D-01  0.000000D+00  0.788767D-03
     21 -0.898032D-02  0.000000D+00  0.000000D+00 -0.689045D-02  0.000000D+00
     22  0.000000D+00 -0.391223D-03  0.970319D-03  0.000000D+00 -0.122750D-02
     23  0.000000D+00  0.418373D-02 -0.613738D-02  0.000000D+00  0.332568D-02
     24 -0.716359D-02  0.000000D+00  0.000000D+00  0.659143D-02  0.000000D+00
     25  0.000000D+00 -0.174422D-02  0.317975D-02  0.000000D+00 -0.398989D+00
     26  0.000000D+00 -0.388124D-02  0.466207D-02  0.000000D+00  0.919047D-01
     27  0.533833D-02  0.000000D+00  0.000000D+00 -0.413236D-02  0.000000D+00
     28  0.000000D+00 -0.143882D+00 -0.210719D+00  0.000000D+00  0.570853D-03
     29  0.000000D+00 -0.189902D+00 -0.282750D+00  0.000000D+00  0.432918D-03
     30 -0.688723D-02  0.000000D+00  0.000000D+00 -0.898214D-02  0.000000D+00
     31  0.000000D+00 -0.245284D-02  0.454193D-02  0.000000D+00 -0.570325D-02
     32  0.000000D+00 -0.148933D-02  0.471716D-02  0.000000D+00 -0.127788D-01
     33 -0.413579D-02  0.000000D+00  0.000000D+00  0.533490D-02  0.000000D+00
     34  0.000000D+00  0.394223D-02 -0.242192D-01  0.000000D+00  0.202864D-02
     35  0.000000D+00  0.600470D-02  0.233662D-02  0.000000D+00 -0.776345D-03
     36  0.659106D-02  0.000000D+00  0.000000D+00 -0.716012D-02  0.000000D+00
               11            12            13            14            15 
     11  0.389212D+00
     12  0.000000D+00 -0.187035D-01
     13  0.369523D-01  0.000000D+00  0.624384D-01
     14  0.243415D-01  0.000000D+00  0.141982D-01  0.131918D+01
     15  0.000000D+00 -0.337168D-01  0.000000D+00  0.000000D+00 -0.186728D-01
     16  0.390207D+00  0.000000D+00  0.465981D-01  0.410144D-01  0.000000D+00
     17 -0.401674D+00  0.000000D+00  0.176747D-02 -0.416825D-02  0.000000D+00
     18  0.000000D+00  0.380338D-01  0.000000D+00  0.000000D+00  0.340487D-01
     19  0.400036D-02  0.000000D+00 -0.259692D-02 -0.189507D-02  0.000000D+00
     20 -0.628953D-02  0.000000D+00  0.412868D-02  0.486745D-02  0.000000D+00
     21  0.000000D+00  0.659031D-02  0.000000D+00  0.000000D+00  0.533896D-02
     22 -0.219536D-04  0.000000D+00 -0.775016D-03 -0.121221D-02  0.000000D+00
     23 -0.184914D-01  0.000000D+00  0.584569D-02  0.369813D-02  0.000000D+00
     24  0.000000D+00 -0.688911D-02  0.000000D+00  0.000000D+00 -0.413314D-02
     25  0.112722D+00  0.000000D+00 -0.269980D-02 -0.221097D-02  0.000000D+00
     26 -0.276377D-01  0.000000D+00 -0.541715D-02 -0.381988D-02  0.000000D+00
     27  0.000000D+00 -0.898277D-02  0.000000D+00  0.000000D+00  0.658240D-02
     28 -0.662871D-02  0.000000D+00  0.956592D-02  0.216296D-01  0.000000D+00
     29  0.234652D-02  0.000000D+00 -0.864477D-02 -0.334652D-02  0.000000D+00
     30  0.000000D+00 -0.413271D-02  0.000000D+00  0.000000D+00 -0.715590D-02
     31  0.174516D-01  0.000000D+00 -0.127159D-01 -0.995139D-02  0.000000D+00
     32  0.119787D-01  0.000000D+00 -0.661556D-02 -0.696018D-02  0.000000D+00
     33  0.000000D+00 -0.715905D-02  0.000000D+00  0.000000D+00 -0.687735D-02
     34 -0.680649D-02  0.000000D+00 -0.317823D-01  0.119887D+00  0.000000D+00
     35  0.235899D-03  0.000000D+00  0.991172D-01 -0.394955D+00  0.000000D+00
     36  0.000000D+00  0.533462D-02  0.000000D+00  0.000000D+00 -0.898691D-02
               16            17            18            19            20 
     16  0.598284D+00
     17 -0.621595D+00  0.783214D+00
     18  0.000000D+00  0.000000D+00 -0.186581D-01
     19  0.336673D-02  0.933224D-03  0.000000D+00  0.221736D+00
     20 -0.612607D-02 -0.443561D-03  0.000000D+00  0.197321D+00  0.219050D+00
     21  0.000000D+00  0.000000D+00 -0.413273D-02  0.000000D+00  0.000000D+00
     22  0.160430D-02 -0.855555D-03  0.000000D+00 -0.805046D-03  0.372535D-03
     23 -0.688111D-02  0.667403D-03  0.000000D+00 -0.133935D-02  0.342072D-03
     24  0.000000D+00  0.000000D+00  0.533889D-02  0.000000D+00  0.000000D+00
     25  0.105987D-01 -0.987317D-02  0.000000D+00 -0.159057D-03  0.286243D-03
     26  0.204051D-01 -0.438272D-02  0.000000D+00 -0.483871D-03  0.649177D-03
     27  0.000000D+00  0.000000D+00 -0.715390D-02  0.000000D+00  0.000000D+00
     28 -0.692516D-02 -0.404726D-03  0.000000D+00 -0.462138D-03 -0.187128D-03
     29  0.280068D-02  0.404032D-03  0.000000D+00  0.476227D-02  0.354351D-03
     30  0.000000D+00  0.000000D+00  0.658294D-02  0.000000D+00  0.000000D+00
     31 -0.746593D-01  0.149999D+00  0.000000D+00 -0.489759D-03  0.889443D-03
     32  0.170774D+00 -0.352058D+00  0.000000D+00 -0.464911D-03  0.687259D-03
     33  0.000000D+00  0.000000D+00 -0.898832D-02  0.000000D+00  0.000000D+00
     34 -0.184891D-01  0.235489D-03  0.000000D+00  0.534436D-03 -0.686313D-03
     35 -0.309948D-02 -0.118657D-02  0.000000D+00  0.844393D-04 -0.424393D-04
     36  0.000000D+00  0.000000D+00 -0.687742D-02  0.000000D+00  0.000000D+00
               21            22            23            24            25 
     21  0.731235D-02
     22  0.000000D+00  0.415133D+00
     23  0.000000D+00 -0.320721D-01  0.256837D-01
     24  0.551701D-02  0.000000D+00  0.000000D+00  0.730758D-02
     25  0.000000D+00  0.213164D-02  0.168494D-02  0.000000D+00  0.390593D+00
     26  0.000000D+00 -0.326521D-02 -0.223954D-02  0.000000D+00 -0.999501D-01
     27 -0.677889D-03  0.000000D+00  0.000000D+00  0.347240D-02  0.000000D+00
     28  0.000000D+00  0.791621D-04 -0.767489D-03  0.000000D+00  0.577403D-03
     29  0.000000D+00  0.354004D-05  0.411511D-03  0.000000D+00 -0.273721D-03
     30  0.347282D-02  0.000000D+00  0.000000D+00 -0.678389D-03  0.000000D+00
     31  0.000000D+00 -0.176009D-05  0.721286D-03  0.000000D+00 -0.360786D-03
     32  0.000000D+00 -0.501310D-04  0.494073D-03  0.000000D+00 -0.117044D-03
     33  0.291310D-03  0.000000D+00  0.000000D+00 -0.678454D-03  0.000000D+00
     34  0.000000D+00  0.208377D-03 -0.129241D-02  0.000000D+00  0.361813D-03
     35  0.000000D+00  0.612337D-04 -0.104799D-04  0.000000D+00  0.145398D-04
     36 -0.678382D-03  0.000000D+00  0.000000D+00  0.291264D-03  0.000000D+00
               26            27            28            29            30 
     26  0.502511D-01
     27  0.000000D+00  0.730667D-02
     28  0.107987D-02  0.000000D+00  0.150695D+00
     29 -0.378819D-03  0.000000D+00  0.184628D+00  0.290151D+00
     30  0.000000D+00  0.290876D-03  0.000000D+00  0.000000D+00  0.730728D-02
     31  0.160056D-02  0.000000D+00  0.659672D-03 -0.338621D-03  0.000000D+00
     32 -0.959025D-04  0.000000D+00  0.432509D-03 -0.168534D-03  0.000000D+00
     33  0.000000D+00  0.551888D-02  0.000000D+00  0.000000D+00 -0.677568D-03
     34  0.785618D-03  0.000000D+00  0.481464D-03 -0.111556D-02  0.000000D+00
     35  0.129070D-03  0.000000D+00  0.602922D-03 -0.936924D-03  0.000000D+00
     36  0.000000D+00 -0.677463D-03  0.000000D+00  0.000000D+00  0.551984D-02
               31            32            33            34            35 
     31  0.954436D-01
     32 -0.152804D+00  0.345414D+00
     33  0.000000D+00  0.000000D+00  0.731100D-02
     34 -0.183847D-02  0.974015D-03  0.000000D+00  0.486477D-01
     35 -0.397309D-02  0.172044D-02  0.000000D+00 -0.972737D-01  0.392225D+00
     36  0.000000D+00  0.000000D+00  0.346892D-02  0.000000D+00  0.000000D+00
               36 
     36  0.730996D-02
 Force constants in internal coordinates: 
                1             2             3             4             5 
      1  0.904114D+00
      2  0.888191D-02  0.442217D-02
      3 -0.219209D-01 -0.107332D-01  0.416784D+00
      4 -0.233747D-01 -0.315727D-02  0.431118D-02  0.211247D-01
      5  0.887549D-02 -0.191287D-01 -0.934272D-02 -0.181554D-02  0.441979D-02
      6 -0.219201D-01 -0.934334D-02 -0.782757D-02 -0.208123D-02 -0.107341D-01
      7 -0.233719D-01 -0.181584D-02 -0.208179D-02  0.725800D-03 -0.315576D-02
      8  0.156371D-01  0.626722D-01  0.126377D-01 -0.143594D-01 -0.657649D-02
      9  0.223156D-01  0.648844D-02  0.115849D-01  0.587455D-03 -0.744911D-02
     10  0.102176D-01  0.858107D-02  0.113585D-02 -0.266907D-03 -0.146138D-01
     11  0.156406D-01 -0.657061D-02  0.516644D-03  0.279089D-01  0.626641D-01
     12  0.223162D-01 -0.744907D-02 -0.411429D-02 -0.376607D-02  0.648561D-02
     13  0.102229D-01 -0.146182D-01 -0.473908D-04  0.204659D-02  0.858307D-02
     14  0.437037D-01 -0.176151D-01  0.619704D-02  0.442747D-02 -0.176155D-01
     15 -0.386900D-03 -0.397259D-03  0.144144D-02  0.198955D-03 -0.224248D-02
     16 -0.151054D-01  0.102009D-01 -0.891188D-03 -0.932704D-02 -0.306932D-02
     17 -0.151046D-01 -0.306969D-02 -0.372845D-02 -0.329982D-02  0.101998D-01
     18 -0.385060D-03 -0.224313D-02 -0.616890D-03 -0.591484D-03 -0.399389D-03
     19  0.817606D-01 -0.137708D-01  0.299315D-01 -0.120900D-01  0.550248D-02
     20  0.817700D-01  0.550983D-02  0.234263D-01 -0.914802D-03 -0.137641D-01
     21 -0.378835D-01 -0.109718D-01 -0.397267D-02 -0.294299D-04 -0.602215D-02
     22 -0.378899D-01 -0.602032D-02  0.150589D-01  0.439054D-02 -0.109692D-01
     23  0.370656D-01 -0.154136D-02  0.579142D-02  0.271927D-02 -0.737503D-02
     24  0.330091D-01 -0.197313D-02  0.472028D-02  0.187906D-02 -0.458287D-02
     25 -0.187209D-01 -0.373831D-02 -0.263686D-02 -0.213296D-02 -0.156393D-02
     26 -0.142882D-01  0.571144D-02 -0.208342D-02  0.253900D-03  0.614680D-02
     27  0.370655D-01 -0.737609D-02  0.648367D-03  0.267048D-02 -0.154288D-02
     28 -0.187197D-01 -0.156387D-02  0.830885D-03 -0.129575D-02 -0.373750D-02
     29  0.330086D-01 -0.458361D-02  0.410603D-03  0.506912D-03 -0.197436D-02
     30 -0.142888D-01  0.614748D-02 -0.124149D-02  0.788840D-03  0.571186D-02
     31  0.000000D+00  0.000000D+00  0.000000D+00  0.000000D+00  0.000000D+00
     32  0.000000D+00  0.000000D+00  0.000000D+00  0.000000D+00  0.000000D+00
     33  0.000000D+00  0.000000D+00  0.000000D+00  0.000000D+00  0.000000D+00
     34  0.000000D+00  0.000000D+00  0.000000D+00  0.000000D+00  0.000000D+00
     35  0.000000D+00  0.000000D+00  0.000000D+00  0.000000D+00  0.000000D+00
     36  0.000000D+00  0.000000D+00  0.000000D+00  0.000000D+00  0.000000D+00
     37  0.000000D+00  0.000000D+00  0.000000D+00  0.000000D+00  0.000000D+00
     38  0.000000D+00  0.000000D+00  0.000000D+00  0.000000D+00  0.000000D+00
                6             7             8             9            10 
      6  0.416745D+00
      7  0.431185D-02  0.211229D-01
      8  0.515974D-03  0.279113D-01  0.920971D+00
      9 -0.411341D-02 -0.376614D-02 -0.477291D-02  0.250906D-01
     10 -0.471109D-04  0.204437D-02 -0.250494D-01  0.405028D-02  0.412693D+00
     11  0.126379D-01 -0.143573D-01  0.375568D-03 -0.256903D-01  0.669698D-02
     12  0.115846D-01  0.587387D-03 -0.256922D-01 -0.477130D-02 -0.133414D-02
     13  0.113598D-02 -0.266963D-03  0.669974D-02 -0.133458D-02  0.557054D-04
     14  0.619708D-02  0.442764D-02  0.570534D-02 -0.165807D-02 -0.741820D-02
     15 -0.616860D-03 -0.591558D-03  0.937914D-03  0.132201D-02 -0.435326D-03
     16 -0.372855D-02 -0.329969D-02 -0.623400D-02  0.520249D-02  0.198892D-02
     17 -0.891342D-03 -0.932669D-02  0.688575D-02  0.100301D-02  0.667096D-02
     18  0.144125D-02  0.199339D-03 -0.186217D-02 -0.299986D-03  0.201425D-02
     19  0.234245D-01 -0.913959D-03 -0.423996D-01 -0.100575D-01 -0.149088D-02
     20  0.299351D-01 -0.120895D-01 -0.362711D-02  0.111356D-01  0.144063D-01
     21  0.150582D-01  0.439189D-02  0.917291D-01 -0.125377D-01  0.413767D-01
     22 -0.397127D-02 -0.295938D-04 -0.212071D-01  0.219731D-02  0.741111D-03
     23  0.648543D-03  0.267059D-02 -0.313285D-01  0.185806D-02 -0.140289D-01
     24  0.410746D-03  0.507115D-03 -0.298983D-01  0.199805D-02 -0.123486D-01
     25  0.830825D-03 -0.129595D-02  0.338382D-01 -0.145386D-02  0.975366D-02
     26 -0.124157D-02  0.788830D-03 -0.393986D-02 -0.544189D-03  0.259492D-02
     27  0.579127D-02  0.271943D-02 -0.658412D-02 -0.304238D-02 -0.606994D-02
     28 -0.263675D-02 -0.213295D-02  0.102307D-01  0.173136D-02  0.405109D-02
     29  0.472012D-02  0.187921D-02 -0.794104D-02 -0.179222D-02 -0.568285D-02
     30 -0.208337D-02  0.253744D-03 -0.228968D-02  0.608578D-04  0.163176D-02
     31  0.000000D+00  0.000000D+00  0.000000D+00  0.000000D+00  0.000000D+00
     32  0.000000D+00  0.000000D+00  0.000000D+00  0.000000D+00  0.000000D+00
     33  0.000000D+00  0.000000D+00  0.000000D+00  0.000000D+00  0.000000D+00
     34  0.000000D+00  0.000000D+00  0.000000D+00  0.000000D+00  0.000000D+00
     35  0.000000D+00  0.000000D+00  0.000000D+00  0.000000D+00  0.000000D+00
     36  0.000000D+00  0.000000D+00  0.000000D+00  0.000000D+00  0.000000D+00
     37  0.000000D+00  0.000000D+00  0.000000D+00  0.000000D+00  0.000000D+00
     38  0.000000D+00  0.000000D+00  0.000000D+00  0.000000D+00  0.000000D+00
               11            12            13            14            15 
     11  0.920863D+00
     12 -0.477549D-02  0.250918D-01
     13 -0.250516D-01  0.405191D-02  0.412684D+00
     14  0.570474D-02 -0.165843D-02 -0.742064D-02  0.971906D-02
     15 -0.186541D-02 -0.300232D-03  0.201464D-02 -0.529229D-02  0.146785D-01
     16  0.688523D-02  0.100323D-02  0.667278D-02 -0.327622D-01  0.259394D-01
     17 -0.623216D-02  0.520254D-02  0.198953D-02 -0.327611D-01  0.227908D-01
     18  0.938654D-03  0.132183D-02 -0.435553D-03 -0.529304D-02  0.301375D-02
     19 -0.363028D-02  0.111365D-01  0.144093D-01 -0.103790D-01 -0.110285D-02
     20 -0.423980D-01 -0.100606D-01 -0.149102D-02 -0.103775D-01  0.146407D-02
     21 -0.212039D-01  0.219783D-02  0.741014D-03  0.167614D-02 -0.219764D-02
     22  0.917245D-01 -0.125380D-01  0.413864D-01  0.167488D-02 -0.234266D-02
     23 -0.658352D-02 -0.304167D-02 -0.607156D-02  0.101040D-01  0.104287D-02
     24 -0.793973D-02 -0.179147D-02 -0.568433D-02  0.286319D-02  0.510773D-02
     25  0.102293D-01  0.173061D-02  0.405199D-02 -0.914555D-02 -0.586656D-05
     26 -0.228960D-02  0.608593D-04  0.163234D-02  0.628236D-02 -0.510186D-02
     27 -0.313266D-01  0.185776D-02 -0.140322D-01  0.101039D-01 -0.281011D-02
     28  0.338380D-01 -0.145358D-02  0.975570D-02 -0.914577D-02 -0.304546D-02
     29 -0.298965D-01  0.199783D-02 -0.123514D-01  0.286293D-02  0.299175D-02
     30 -0.394147D-02 -0.544245D-03  0.259568D-02  0.628284D-02  0.537134D-04
     31  0.000000D+00  0.000000D+00  0.000000D+00  0.000000D+00  0.000000D+00
     32  0.000000D+00  0.000000D+00  0.000000D+00  0.000000D+00  0.000000D+00
     33  0.000000D+00  0.000000D+00  0.000000D+00  0.000000D+00  0.000000D+00
     34  0.000000D+00  0.000000D+00  0.000000D+00  0.000000D+00  0.000000D+00
     35  0.000000D+00  0.000000D+00  0.000000D+00  0.000000D+00  0.000000D+00
     36  0.000000D+00  0.000000D+00  0.000000D+00  0.000000D+00  0.000000D+00
     37  0.000000D+00  0.000000D+00  0.000000D+00  0.000000D+00  0.000000D+00
     38  0.000000D+00  0.000000D+00  0.000000D+00  0.000000D+00  0.000000D+00
               16            17            18            19            20 
     16  0.358777D+00
     17 -0.359990D-01  0.358764D+00
     18  0.227921D-01  0.259383D-01  0.146787D-01
     19  0.360312D-02  0.103757D-01  0.146275D-02  0.526205D-01
     20  0.103755D-01  0.360220D-02 -0.110336D-02 -0.156768D-01  0.526352D-01
     21 -0.383623D-02 -0.162193D-01 -0.234339D-02 -0.307822D-02 -0.243835D-01
     22 -0.162190D-01 -0.383646D-02 -0.219790D-02 -0.243833D-01 -0.307643D-02
     23  0.185569D-01 -0.358050D-01 -0.280939D-02 -0.442874D-02  0.216421D-02
     24  0.844966D-02  0.455179D-01  0.299222D-02 -0.179433D-02  0.301224D-02
     25  0.255180D-01 -0.123040D-02 -0.304647D-02 -0.660520D-03 -0.451328D-02
     26 -0.339676D-01 -0.442875D-01  0.542521D-04  0.245485D-02  0.150105D-02
     27 -0.358067D-01  0.185562D-01  0.104256D-02  0.216310D-02 -0.442903D-02
     28 -0.122976D-02  0.255180D-01 -0.607373D-05 -0.451310D-02 -0.660345D-03
     29  0.455193D-01  0.844908D-02  0.510773D-02  0.301148D-02 -0.179464D-02
     30 -0.442895D-01 -0.339671D-01 -0.510166D-02  0.150161D-02  0.245499D-02
     31  0.000000D+00  0.000000D+00  0.000000D+00  0.000000D+00  0.000000D+00
     32  0.000000D+00  0.000000D+00  0.000000D+00  0.000000D+00  0.000000D+00
     33  0.000000D+00  0.000000D+00  0.000000D+00  0.000000D+00  0.000000D+00
     34  0.000000D+00  0.000000D+00  0.000000D+00  0.000000D+00  0.000000D+00
     35  0.000000D+00  0.000000D+00  0.000000D+00  0.000000D+00  0.000000D+00
     36  0.000000D+00  0.000000D+00  0.000000D+00  0.000000D+00  0.000000D+00
     37  0.000000D+00  0.000000D+00  0.000000D+00  0.000000D+00  0.000000D+00
     38  0.000000D+00  0.000000D+00  0.000000D+00  0.000000D+00  0.000000D+00
               21            22            23            24            25 
     21  0.414660D-01
     22 -0.751255D-02  0.414722D-01
     23  0.277407D-02  0.625819D-02  0.205152D-01
     24 -0.804081D-03  0.555204D-02  0.120177D-01  0.220469D-01
     25 -0.147623D-02 -0.753024D-02 -0.103784D-01 -0.105360D-01  0.127153D-01
     26  0.228031D-02  0.197820D-02 -0.163933D-02 -0.115109D-01 -0.217934D-02
     27  0.625898D-02  0.277347D-02 -0.949168D-04  0.429412D-02 -0.277228D-02
     28 -0.753066D-02 -0.147669D-02 -0.277217D-02  0.351006D-02 -0.190365D-02
     29  0.555292D-02 -0.804568D-03  0.429422D-02  0.594679D-02  0.351003D-02
     30  0.197775D-02  0.228125D-02 -0.152205D-02 -0.945685D-02 -0.160637D-02
     31  0.000000D+00  0.000000D+00  0.000000D+00  0.000000D+00  0.000000D+00
     32  0.000000D+00  0.000000D+00  0.000000D+00  0.000000D+00  0.000000D+00
     33  0.000000D+00  0.000000D+00  0.000000D+00  0.000000D+00  0.000000D+00
     34  0.000000D+00  0.000000D+00  0.000000D+00  0.000000D+00  0.000000D+00
     35  0.000000D+00  0.000000D+00  0.000000D+00  0.000000D+00  0.000000D+00
     36  0.000000D+00  0.000000D+00  0.000000D+00  0.000000D+00  0.000000D+00
     37  0.000000D+00  0.000000D+00  0.000000D+00  0.000000D+00  0.000000D+00
     38  0.000000D+00  0.000000D+00  0.000000D+00  0.000000D+00  0.000000D+00
               26            27            28            29            30 
     26  0.136903D-01
     27 -0.152184D-02  0.205167D-01
     28 -0.160640D-02 -0.103797D-01  0.127160D-01
     29 -0.945682D-02  0.120188D-01 -0.105371D-01  0.220484D-01
     30  0.110632D-01 -0.163918D-02 -0.217893D-02 -0.115113D-01  0.136902D-01
     31  0.000000D+00  0.000000D+00  0.000000D+00  0.000000D+00  0.000000D+00
     32  0.000000D+00  0.000000D+00  0.000000D+00  0.000000D+00  0.000000D+00
     33  0.000000D+00  0.000000D+00  0.000000D+00  0.000000D+00  0.000000D+00
     34  0.000000D+00  0.000000D+00  0.000000D+00  0.000000D+00  0.000000D+00
     35  0.000000D+00  0.000000D+00  0.000000D+00  0.000000D+00  0.000000D+00
     36  0.000000D+00  0.000000D+00  0.000000D+00  0.000000D+00  0.000000D+00
     37  0.000000D+00  0.000000D+00  0.000000D+00  0.000000D+00  0.000000D+00
     38  0.000000D+00  0.000000D+00  0.000000D+00  0.000000D+00  0.000000D+00
               31            32            33            34            35 
     31 -0.225942D-02
     32 -0.277395D-02  0.751304D-02
     33  0.206669D-02  0.468977D-02  0.102205D-02
     34 -0.192402D-02 -0.598394D-02 -0.975291D-03  0.251137D-02
     35 -0.277396D-02  0.514410D-02  0.892347D-03 -0.414256D-02  0.751462D-02
     36 -0.192434D-02 -0.414231D-02  0.254592D-02 -0.601417D-03 -0.598435D-02
     37  0.206736D-02  0.893695D-03 -0.525697D-02  0.254597D-02  0.469117D-02
     38 -0.601538D-02 -0.429455D-03  0.558690D-02 -0.503170D-02 -0.429007D-03
               36            37            38 
     36  0.251076D-02
     37 -0.975286D-03  0.102112D-02
     38 -0.503180D-02  0.558862D-02 -0.100113D-01
 Leave Link  716 at Tue Dec  7 15:53:23 2021, MaxMem=  498073600 cpu:       0.1
 (Enter /apps/software//g09/l123.exe)
 IRC-IRC-IRC-IRC-IRC-IRC-IRC-IRC-IRC-IRC-IRC-IRC-IRC-IRC-IRC-IRC-IRC-IRC
          ******** Start new reaction path calculation ********
 Current Structure is TS -> diagonalize the Hessian.
 WARNING: TS HAS MORE THAN 1 IMAGINARY FREQUENCY!
 Supplied step size of   0.1000 bohr.
    Integration on MW PES will use step size of   0.2162 sqrt(amu)*bohr.
 Point Number:   0          Path Number:   1
 Calculating another point on the path.
 Point Number  1 in FORWARD path direction.
 Using LQA Reaction Path Following.
 IRC-IRC-IRC-IRC-IRC-IRC-IRC-IRC-IRC-IRC-IRC-IRC-IRC-IRC-IRC-IRC-IRC-IRC
 Leave Link  123 at Tue Dec  7 15:53:23 2021, MaxMem=  498073600 cpu:       0.2
 (Enter /apps/software//g09/l202.exe)
                          Input orientation:                          
 ---------------------------------------------------------------------
 Center     Atomic      Atomic             Coordinates (Angstroms)
 Number     Number       Type             X           Y           Z
 ---------------------------------------------------------------------
      1          6           0       -1.151759    1.366565    0.012482
      2          6           0       -0.000005    1.787103   -0.012482
      3          6           0        1.759485    0.314238    0.012476
      4          6           0       -1.547916   -0.893506   -0.012473
      5          6           0        1.548340   -0.893512   -0.012467
      6          6           0       -0.608110   -1.680942    0.012466
      7          1           0        0.729760    2.561169    0.017641
      8          1           0       -2.208613    1.488062   -0.017646
      9          1           0       -2.583053   -0.648199    0.017635
     10          1           0        2.392807    1.168980   -0.017638
     11          1           0       -0.184264   -2.656645   -0.017634
     12          1           0        1.852945   -1.912749    0.017635
 ---------------------------------------------------------------------
                    Distance matrix (angstroms):
                    1          2          3          4          5
     1  C    0.000000
     2  C    1.226382   0.000000
     3  C    3.095599   2.294724   0.000000
     4  C    2.294664   3.095431   3.521103   0.000000
     5  C    3.521236   3.095653   1.226322   3.096256   0.000000
     6  C    3.095618   3.521044   3.096167   1.226341   2.295854
     7  H    2.228726   1.064257   2.471651   4.138054   3.550465
     8  H    1.064241   2.228767   4.138185   2.471520   4.448215
     9  H    2.471417   3.550175   4.447915   1.064232   4.138779
    10  H    3.550196   2.471366   1.064231   4.447828   2.228682
    11  H    4.138015   4.447569   3.550382   2.228953   2.471959
    12  H    4.447715   4.138023   2.228953   3.550439   1.064206
                    6          7          8          9         10
     6  C    0.000000
     7  H    4.448081   0.000000
     8  H    3.550367   3.128393   0.000000
     9  H    2.228673   4.612458   2.169115   0.000000
    10  H    4.138655   2.169138   4.612470   5.297411   0.000000
    11  H    1.064212   5.297383   4.612655   3.128784   4.612668
    12  H    2.471953   4.612753   5.297454   4.612718   3.128857
                   11         12
    11  H    0.000000
    12  H    2.169066   0.000000
 Symmetry turned off by external request.
 Stoichiometry    C6H6
 Framework group  C1[X(C6H6)]
 Deg. of freedom    30
 Full point group                 C1      NOp   1
 Rotational constants (GHZ):      3.7039834      3.7028647      1.8518896
 Leave Link  202 at Tue Dec  7 15:53:23 2021, MaxMem=  498073600 cpu:       0.1
 (Enter /apps/software//g09/l301.exe)
 Standard basis: 6-311++G(d,p) (5D, 7F)
 Ernie: Thresh=  0.10000D-02 Tol=  0.10000D-05 Strict=F.
 Integral buffers will be    131072 words long.
 Raffenetti 1 integral format.
 Two-electron integral symmetry is turned off.
   174 basis functions,   270 primitive gaussians,   180 cartesian basis functions
    21 alpha electrons       21 beta electrons
       nuclear repulsion energy       175.2922499639 Hartrees.
 IExCor=    0 DFT=F Ex=HF Corr=None ExCW=0 ScaHFX=  1.000000
 ScaDFX=  1.000000  1.000000  1.000000  1.000000 ScalE2=  1.000000  1.000000
 IRadAn=      0 IRanWt=     -1 IRanGd=            0 ICorTp=0
 NAtoms=   12 NActive=   12 NUniq=   12 SFac= 7.50D-01 NAtFMM=   80 NAOKFM=F Big=F
 Leave Link  301 at Tue Dec  7 15:53:23 2021, MaxMem=  498073600 cpu:       0.2
 (Enter /apps/software//g09/l302.exe)
 NPDir=0 NMtPBC=     1 NCelOv=     1 NCel=       1 NClECP=     1 NCelD=      1
         NCelK=      1 NCelE2=     1 NClLst=     1 CellRange=     0.0.
 One-electron integrals computed using PRISM.
 NBasis=   174 RedAO= T  NBF=   174
 NBsUse=   174 1.00D-06 NBFU=   174
 Leave Link  302 at Tue Dec  7 15:53:23 2021, MaxMem=  498073600 cpu:       1.5
 (Enter /apps/software//g09/l303.exe)
 DipDrv:  MaxL=1.
 Leave Link  303 at Tue Dec  7 15:53:23 2021, MaxMem=  498073600 cpu:       0.2
 (Enter /apps/software//g09/l401.exe)
 Initial guess read from the read-write file.
 B after Tr=     0.000000    0.000000    0.000000
         Rot=    1.000000    0.000000    0.000000    0.000000 Ang=   0.00 deg.
 Guess basis will be translated and rotated to current coordinates.
 Generating alternative initial guess.
 Harris functional with IExCor=  205 diagonalized for initial guess.
 ExpMin= 3.60D-02 ExpMax= 4.56D+03 ExpMxC= 6.82D+02 IAcc=3 IRadAn=         0 AccDes= 0.00D+00
 HarFok:  IExCor=  205 AccDes= 0.00D+00 IRadAn=         0 IDoV= 1
 ScaDFX=  1.000000  1.000000  1.000000  1.000000
 FoFCou: FMM=F IPFlag=           0 FMFlag=      100000 FMFlg1=           0
         NFxFlg=           0 DoJE=T BraDBF=F KetDBF=T FulRan=T
         Omega=  0.000000  0.000000  1.000000  0.000000  0.000000 ICntrl=     500 IOpCl=  0
         NMat0=    1 NMatS0=    1 NMatT0=    0 NMatD0=    1 NMtDS0=    0 NMtDT0=    0
         I1Cent=           4 NGrid=           0.
 Symmetry not used in FoFCou.
 Harris En= -230.863909850178    
 Leave Link  401 at Tue Dec  7 15:53:24 2021, MaxMem=  498073600 cpu:       5.5
 (Enter /apps/software//g09/l502.exe)
 Closed shell SCF:
 Requested convergence on RMS density matrix=1.00D-08 within 128 cycles.
 Requested convergence on MAX density matrix=1.00D-06.
 Requested convergence on             energy=1.00D-06.
 No special actions if energy rises.
 Using DIIS extrapolation, IDIIS=  1040.
 Two-electron integral symmetry not used.
 Keep R1 ints in memory in canonical form, NReq=135772519.
 IEnd=      117530 IEndB=      117530 NGot=   498073600 MDV=   365315068
 LenX=   365315068 LenY=   365282227
 Symmetry not used in FoFDir.
 MinBra= 0 MaxBra= 2 Meth= 1.
 IRaf=       0 NMat=   1 IRICut=       1 DoRegI=T DoRafI=F ISym2E= 0 JSym2E=0.

 Cycle   1  Pass 1  IDiag  1:
 E= -230.391973688550    
 DIIS: error= 3.94D-03 at cycle   1 NSaved=   1.
 NSaved= 1 IEnMin= 1 EnMin= -230.391973688550     IErMin= 1 ErrMin= 3.94D-03
 ErrMax= 3.94D-03 EMaxC= 1.00D-01 BMatC= 8.03D-04 BMatP= 8.03D-04
 IDIUse=3 WtCom= 9.61D-01 WtEn= 3.94D-02
 Coeff-Com:  0.100D+01
 Coeff-En:   0.100D+01
 Coeff:      0.100D+01
 Gap=     0.381 Goal=   None    Shift=    0.000
 GapD=    0.381 DampG=1.000 DampE=1.000 DampFc=1.0000 IDamp=-1.
 RMSDP=6.16D-03 MaxDP=9.68D-02              OVMax= 1.27D-02

 Cycle   2  Pass 1  IDiag  1:
 E= -230.393143842467     Delta-E=       -0.001170153917 Rises=F Damp=F
 DIIS: error= 7.29D-04 at cycle   2 NSaved=   2.
 NSaved= 2 IEnMin= 2 EnMin= -230.393143842467     IErMin= 2 ErrMin= 7.29D-04
 ErrMax= 7.29D-04 EMaxC= 1.00D-01 BMatC= 4.00D-05 BMatP= 8.03D-04
 IDIUse=3 WtCom= 9.93D-01 WtEn= 7.29D-03
 Coeff-Com: -0.209D+00 0.121D+01
 Coeff-En:   0.000D+00 0.100D+01
 Coeff:     -0.208D+00 0.121D+01
 Gap=     0.381 Goal=   None    Shift=    0.000
 RMSDP=3.03D-03 MaxDP=7.32D-02 DE=-1.17D-03 OVMax= 3.56D-03

 Cycle   3  Pass 1  IDiag  1:
 E= -230.393249546980     Delta-E=       -0.000105704513 Rises=F Damp=F
 DIIS: error= 2.16D-04 at cycle   3 NSaved=   3.
 NSaved= 3 IEnMin= 3 EnMin= -230.393249546980     IErMin= 3 ErrMin= 2.16D-04
 ErrMax= 2.16D-04 EMaxC= 1.00D-01 BMatC= 2.95D-06 BMatP= 4.00D-05
 IDIUse=3 WtCom= 9.98D-01 WtEn= 2.16D-03
 Coeff-Com:  0.313D-01-0.311D+00 0.128D+01
 Coeff-En:   0.000D+00 0.000D+00 0.100D+01
 Coeff:      0.312D-01-0.311D+00 0.128D+01
 Gap=     0.381 Goal=   None    Shift=    0.000
 RMSDP=2.24D-04 MaxDP=5.79D-03 DE=-1.06D-04 OVMax= 1.88D-03

 Cycle   4  Pass 1  IDiag  1:
 E= -230.393266394040     Delta-E=       -0.000016847060 Rises=F Damp=F
 DIIS: error= 1.31D-04 at cycle   4 NSaved=   4.
 NSaved= 4 IEnMin= 4 EnMin= -230.393266394040     IErMin= 4 ErrMin= 1.31D-04
 ErrMax= 1.31D-04 EMaxC= 1.00D-01 BMatC= 8.89D-07 BMatP= 2.95D-06
 IDIUse=3 WtCom= 9.99D-01 WtEn= 1.31D-03
 Coeff-Com: -0.195D-01 0.231D+00-0.132D+01 0.211D+01
 Coeff-En:   0.000D+00 0.000D+00 0.000D+00 0.100D+01
 Coeff:     -0.195D-01 0.231D+00-0.132D+01 0.211D+01
 Gap=     0.381 Goal=   None    Shift=    0.000
 RMSDP=2.40D-04 MaxDP=7.04D-03 DE=-1.68D-05 OVMax= 1.82D-03

 Cycle   5  Pass 1  IDiag  1:
 E= -230.393274973174     Delta-E=       -0.000008579134 Rises=F Damp=F
 DIIS: error= 5.68D-05 at cycle   5 NSaved=   5.
 NSaved= 5 IEnMin= 5 EnMin= -230.393274973174     IErMin= 5 ErrMin= 5.68D-05
 ErrMax= 5.68D-05 EMaxC= 1.00D-01 BMatC= 1.45D-07 BMatP= 8.89D-07
 IDIUse=1 WtCom= 1.00D+00 WtEn= 0.00D+00
 Coeff-Com: -0.677D-02 0.569D-01-0.171D+00-0.247D+00 0.137D+01
 Coeff:     -0.677D-02 0.569D-01-0.171D+00-0.247D+00 0.137D+01
 Gap=     0.381 Goal=   None    Shift=    0.000
 RMSDP=2.60D-05 MaxDP=2.75D-04 DE=-8.58D-06 OVMax= 7.94D-04

 Cycle   6  Pass 1  IDiag  1:
 E= -230.393276341074     Delta-E=       -0.000001367900 Rises=F Damp=F
 DIIS: error= 2.01D-05 at cycle   6 NSaved=   6.
 NSaved= 6 IEnMin= 6 EnMin= -230.393276341074     IErMin= 6 ErrMin= 2.01D-05
 ErrMax= 2.01D-05 EMaxC= 1.00D-01 BMatC= 1.36D-08 BMatP= 1.45D-07
 IDIUse=1 WtCom= 1.00D+00 WtEn= 0.00D+00
 Coeff-Com:  0.281D-02-0.342D-01 0.203D+00-0.362D+00 0.900D-01 0.110D+01
 Coeff:      0.281D-02-0.342D-01 0.203D+00-0.362D+00 0.900D-01 0.110D+01
 Gap=     0.381 Goal=   None    Shift=    0.000
 RMSDP=1.62D-05 MaxDP=3.21D-04 DE=-1.37D-06 OVMax= 2.24D-04

 Cycle   7  Pass 1  IDiag  1:
 E= -230.393276428484     Delta-E=       -0.000000087410 Rises=F Damp=F
 DIIS: error= 6.10D-06 at cycle   7 NSaved=   7.
 NSaved= 7 IEnMin= 7 EnMin= -230.393276428484     IErMin= 7 ErrMin= 6.10D-06
 ErrMax= 6.10D-06 EMaxC= 1.00D-01 BMatC= 1.09D-09 BMatP= 1.36D-08
 IDIUse=1 WtCom= 1.00D+00 WtEn= 0.00D+00
 Coeff-Com: -0.563D-03 0.105D-01-0.819D-01 0.200D+00-0.160D+00-0.545D+00
 Coeff-Com:  0.158D+01
 Coeff:     -0.563D-03 0.105D-01-0.819D-01 0.200D+00-0.160D+00-0.545D+00
 Coeff:      0.158D+01
 Gap=     0.381 Goal=   None    Shift=    0.000
 RMSDP=1.91D-05 MaxDP=5.82D-04 DE=-8.74D-08 OVMax= 4.70D-05

 Cycle   8  Pass 1  IDiag  1:
 E= -230.393276434332     Delta-E=       -0.000000005848 Rises=F Damp=F
 DIIS: error= 1.19D-06 at cycle   8 NSaved=   8.
 NSaved= 8 IEnMin= 8 EnMin= -230.393276434332     IErMin= 8 ErrMin= 1.19D-06
 ErrMax= 1.19D-06 EMaxC= 1.00D-01 BMatC= 4.16D-11 BMatP= 1.09D-09
 IDIUse=1 WtCom= 1.00D+00 WtEn= 0.00D+00
 Coeff-Com:  0.918D-04-0.196D-02 0.168D-01-0.476D-01 0.480D-01 0.119D+00
 Coeff-Com: -0.529D+00 0.139D+01
 Coeff:      0.918D-04-0.196D-02 0.168D-01-0.476D-01 0.480D-01 0.119D+00
 Coeff:     -0.529D+00 0.139D+01
 Gap=     0.381 Goal=   None    Shift=    0.000
 RMSDP=2.38D-06 MaxDP=5.96D-05 DE=-5.85D-09 OVMax= 9.47D-06

 Cycle   9  Pass 1  IDiag  1:
 E= -230.393276434524     Delta-E=       -0.000000000192 Rises=F Damp=F
 DIIS: error= 1.47D-07 at cycle   9 NSaved=   9.
 NSaved= 9 IEnMin= 9 EnMin= -230.393276434524     IErMin= 9 ErrMin= 1.47D-07
 ErrMax= 1.47D-07 EMaxC= 1.00D-01 BMatC= 2.39D-12 BMatP= 4.16D-11
 IDIUse=1 WtCom= 1.00D+00 WtEn= 0.00D+00
 Coeff-Com:  0.318D-04-0.699D-03 0.596D-02-0.165D-01 0.160D-01 0.421D-01
 Coeff-Com: -0.173D+00 0.381D+00 0.745D+00
 Coeff:      0.318D-04-0.699D-03 0.596D-02-0.165D-01 0.160D-01 0.421D-01
 Coeff:     -0.173D+00 0.381D+00 0.745D+00
 Gap=     0.381 Goal=   None    Shift=    0.000
 RMSDP=4.09D-07 MaxDP=1.37D-05 DE=-1.92D-10 OVMax= 7.39D-07

[...]
 Calling FoFJK, ICntrl=      2127 FMM=F ISym2X=0 I1Cent= 0 IOpClX= 0 NMat=1 NMatS=1 NMatT=0.
 FoFCou: FMM=F IPFlag=           0 FMFlag=      100000 FMFlg1=         800
         NFxFlg=           0 DoJE=F BraDBF=F KetDBF=F FulRan=T
         Omega=  0.000000  0.000000  1.000000  0.000000  0.000000 ICntrl=    2127 IOpCl=  0
         NMat0=    1 NMatS0=    1 NMatT0=    0 NMatD0=    1 NMtDS0=    0 NMtDT0=    0
         I1Cent=           0 NGrid=           0.
 Symmetry not used in FoFCou.
 Leave Link  703 at Tue Dec  7 17:39:13 2021, MaxMem=  498073600 cpu:      31.1
 (Enter /apps/software//g09/l716.exe)
 Dipole        = 5.18815029D-03-9.79197463D-03 5.73911476D-04
 Polarizability= 0.00000000D+00 0.00000000D+00 0.00000000D+00
                 0.00000000D+00 0.00000000D+00 0.00000000D+00
 -------------------------------------------------------------------
 Center     Atomic                   Forces (Hartrees/Bohr)
 Number     Number              X              Y              Z
 -------------------------------------------------------------------
      1        6          -0.001059689    0.016459400   -0.004965530
      2        6          -0.008843001    0.013198792    0.005271216
      3        6           0.015023029   -0.007775438    0.000075755
      4        6          -0.006287552   -0.015000775   -0.001201810
      5        6           0.015720055    0.001507033   -0.001909578
      6        6          -0.013602846   -0.008831837    0.002867350
      7        1          -0.002799612   -0.000390214   -0.001458357
      8        1           0.001949546    0.000847947    0.001414521
      9        1           0.001168767   -0.001668668    0.000142392
     10        1          -0.000224953   -0.001729738    0.000056222
     11        1          -0.001800488    0.001212608   -0.000417228
     12        1           0.000756745    0.002170891    0.000125047
 -------------------------------------------------------------------
 Cartesian Forces:  Max     0.016459400 RMS     0.006846286
 Leave Link  716 at Tue Dec  7 17:39:13 2021, MaxMem=  498073600 cpu:       0.1
 (Enter /apps/software//g09/l123.exe)
 IRC-IRC-IRC-IRC-IRC-IRC-IRC-IRC-IRC-IRC-IRC-IRC-IRC-IRC-IRC-IRC-IRC-IRC
 Pt 20 Step number   1 out of a maximum of  50
 Using modified Bulirsch-Stoer corrector interation.
   Using distance weighted interpolants to fit PES.
    Cycle     1 NS=     2
    Cycle     2 NS=     4 Truncation Error =  0.020390991
    Cycle     3 NS=     6 Truncation Error =  0.037184493
    Cycle     4 NS=     8 Truncation Error =  0.039481689
    Cycle     5 NS=    12 Truncation Error =  0.024857302
    Cycle     6 NS=    16 Truncation Error =  0.011397868
    Cycle     7 NS=    24 Truncation Error =  0.006168153
    Cycle     8 NS=    32 Truncation Error =  0.003066901
    Cycle     9 NS=    48 Truncation Error =  0.008316944
    Cycle    10 NS=    64 Truncation Error =  0.002011535
    Cycle    11 NS=    96 Truncation Error =  0.002258128
    Cycle    12 NS=   128 Truncation Error =  0.001694765
    Cycle    13 NS=   192 Truncation Error =  0.000485393
    Cycle    14 NS=   256 Truncation Error =  0.000085545
    Cycle    15 NS=   384 Truncation Error =  0.000008886
    Cycle    16 NS=   512 Truncation Error =  0.000000648
 BS completed in   16 cycles and    1784 integration steps.
 SUMMARY OF CORRECTOR INTEGRATION:
   Original End Point Energy  =  -231.275535
   Corrected End Point Energy =  -231.275571
   Old End-Start Dist.        =     0.216115
   New End-Start Dist.        =     0.216022
   New End-Old End Dist.      =     0.008944
 CORRECTOR INTEGRATION CONVERGENCE:
   Recorrection delta-x convergence threshold:    0.010000
   Delta-x Convergence Met
 Point Number:  10          Path Number:   2
                    CURRENT STRUCTURE
                Cartesian Coordinates (Ang):                
 ---------------------------------------------------------------------
 Center     Atomic                     Coordinates (Angstroms)
 Number     Number                        X           Y           Z
 ---------------------------------------------------------------------
      1          6                   -1.169810    1.419619   -0.010645
      2          6                   -0.014540    1.837973    0.011439
      3          6                    1.810064    0.307739    0.012405
      4          6                   -1.580685   -0.927852   -0.016739
      5          6                    1.601730   -0.902108   -0.016267
      6          6                   -0.642138   -1.718838    0.021292
      7          1                    0.816165    2.481271    0.170074
      8          1                   -2.221431    1.398859   -0.163421
      9          1                   -2.567920   -0.536967   -0.049850
     10          1                    2.330207    1.234293    0.005531
     11          1                   -0.091006   -2.623325    0.103458
     12          1                    1.753190   -1.952433   -0.062627
 ---------------------------------------------------------------------
   CHANGE IN THE REACTION COORDINATE =    0.21602
   NET REACTION COORDINATE UP TO THIS POINT =    1.21831
  # OF POINTS ALONG THE PATH =  20
  # OF STEPS =   1

 Maximum number of steps reached.
 Calculation of REVERSE path complete.
 Reaction path calculation complete.
 
 Energies reported relative to the TS energy of        -231.268228
 --------------------------------------------------------------------------
    Summary of reaction path following
 --------------------------------------------------------------------------
                        Energy   Rx Coord
   1                   -0.00734  -1.21831
   2                   -0.00567  -1.00229
   3                   -0.00416  -0.78646
   4                   -0.00291  -0.57097
   5                   -0.00196  -0.35750
   6                   -0.00159  -0.24941
   7                   -0.00126  -0.14913
   8                   -0.00063  -0.06428
   9                   -0.00006  -0.01245
  10                   -0.00002  -0.00246
  11                    0.00000   0.00000
  12                   -0.00024   0.02153
  13                   -0.00115   0.11485
  14                   -0.00158   0.20741
  15                   -0.00276   0.41765
  16                   -0.00437   0.63355
  17                   -0.00632   0.84958
  18                   -0.00851   1.06564
  19                   -0.01087   1.28172
  20                   -0.01334   1.49780
  21                   -0.01587   1.71389
 --------------------------------------------------------------------------
 
 Total number of points:                   20
 Total number of gradient calculations:   137
 Total number of Hessian calculations:      1
 IRC-IRC-IRC-IRC-IRC-IRC-IRC-IRC-IRC-IRC-IRC-IRC-IRC-IRC-IRC-IRC-IRC-IRC
 Leave Link  123 at Tue Dec  7 17:39:13 2021, MaxMem=  498073600 cpu:       0.3
 (Enter /apps/software//g09/l202.exe)
                          Input orientation:                          
 ---------------------------------------------------------------------
 Center     Atomic      Atomic             Coordinates (Angstroms)
 Number     Number       Type             X           Y           Z
 ---------------------------------------------------------------------
      1          6           0       -1.169923    1.419421   -0.010314
      2          6           0       -0.014474    1.837645    0.011084
      3          6           0        1.809881    0.307800    0.012395
      4          6           0       -1.580561   -0.927590   -0.016699
      5          6           0        1.601669   -0.902115   -0.016228
      6          6           0       -0.641993   -1.718699    0.021214
      7          1           0        0.817045    2.481329    0.172206
      8          1           0       -2.222045    1.398870   -0.165096
      9          1           0       -2.568199   -0.537198   -0.050661
     10          1           0        2.330355    1.234476    0.005966
     11          1           0       -0.090598   -2.623689    0.105234
     12          1           0        1.752867   -1.953108   -0.063985
 ---------------------------------------------------------------------
                    Distance matrix (angstroms):
                    1          2          3          4          5
     1  C    0.000000
     2  C    1.228996   0.000000
     3  C    3.180479   2.380903   0.000000
     4  C    2.382671   3.178038   3.608619   0.000000
     5  C    3.615423   3.181030   1.228033   3.182332   0.000000
     6  C    3.182373   3.611298   3.180953   1.228088   2.387935
     7  H    2.260310   1.063819   2.394888   4.171921   3.478337
     8  H    1.063646   2.257639   4.180714   2.417838   4.465141
     9  H    2.405236   3.487866   4.459325   1.062539   4.185947
    10  H    3.505198   2.421169   1.062856   4.468814   2.257541
    11  H    4.186291   4.462977   3.494863   2.260887   2.417094
    12  H    4.463130   4.183174   2.262916   3.487931   1.062887
                    6          7          8          9         10
     6  C    0.000000
     7  H    4.448800   0.000000
     8  H    3.500073   3.243695   0.000000
     9  H    2.260836   4.541041   1.970096   0.000000
    10  H    4.190027   1.967837   4.558578   5.209401   0.000000
    11  H    1.063063   5.185510   4.560387   3.242878   4.555909
    12  H    2.407813   4.538257   5.200568   4.547152   3.240228
                   11         12
    11  H    0.000000
    12  H    1.968928   0.000000
 Symmetry turned off by external request.
 Stoichiometry    C6H6
 Framework group  C1[X(C6H6)]
 Deg. of freedom    30
 Full point group                 C1      NOp   1
 Rotational constants (GHZ):      3.5535570      3.5480310      1.7764856
 Leave Link  202 at Tue Dec  7 17:39:13 2021, MaxMem=  498073600 cpu:       0.0
 (Enter /apps/software//g09/l601.exe)
 Copying SCF densities to generalized density rwf, IOpCl= 0 IROHF=0.

 **********************************************************************

            Population analysis using the SCF density.

 **********************************************************************

 Alpha  occ. eigenvalues --  -11.24036 -11.23985 -11.23977 -11.23709 -11.23654
 Alpha  occ. eigenvalues --  -11.23649  -1.03991  -1.01165  -1.01148  -0.79425
 Alpha  occ. eigenvalues --   -0.79410  -0.72092  -0.70373  -0.65082  -0.64971
 Alpha  occ. eigenvalues --   -0.47749  -0.42115  -0.38540  -0.38512  -0.34745
 Alpha  occ. eigenvalues --   -0.34737
 Alpha virt. eigenvalues --    0.04255   0.04386   0.04430   0.06481   0.06520
 Alpha virt. eigenvalues --    0.08552   0.10648   0.10921   0.11844   0.12648
 Alpha virt. eigenvalues --    0.13812   0.14670   0.16276   0.16473   0.17731
 Alpha virt. eigenvalues --    0.17847   0.17937   0.18612   0.19602   0.19658
 Alpha virt. eigenvalues --    0.19890   0.20656   0.21928   0.22060   0.22625
 Alpha virt. eigenvalues --    0.22669   0.24233   0.24497   0.25123   0.25411
 Alpha virt. eigenvalues --    0.27756   0.27895   0.28169   0.28897   0.31369
 Alpha virt. eigenvalues --    0.33935   0.35672   0.35942   0.36328   0.42466
 Alpha virt. eigenvalues --    0.43695   0.45599   0.54630   0.55318   0.56579
 Alpha virt. eigenvalues --    0.60439   0.66394   0.67319   0.67780   0.69143
 Alpha virt. eigenvalues --    0.74630   0.74840   0.78821   0.80064   0.82939
 Alpha virt. eigenvalues --    0.82985   0.84858   0.87553   0.87622   0.88657
 Alpha virt. eigenvalues --    0.90882   0.96005   0.96391   0.96919   1.01302
 Alpha virt. eigenvalues --    1.01737   1.02324   1.07945   1.08085   1.12243
 Alpha virt. eigenvalues --    1.15219   1.22121   1.26398   1.27250   1.29448
 Alpha virt. eigenvalues --    1.29762   1.31079   1.38430   1.39820   1.45700
 Alpha virt. eigenvalues --    1.45815   1.47620   1.48776   1.49157   1.50845
 Alpha virt. eigenvalues --    1.62408   1.63412   1.65001   1.65807   1.72243
 Alpha virt. eigenvalues --    1.89155   1.90810   1.91457   1.91635   1.92081
 Alpha virt. eigenvalues --    1.92877   1.96227   1.97175   1.98537   2.02025
 Alpha virt. eigenvalues --    2.03452   2.08583   2.10441   2.12154   2.12325
 Alpha virt. eigenvalues --    2.23972   2.32185   2.32386   2.41033   2.41795
 Alpha virt. eigenvalues --    2.46984   2.72005   2.75003   2.76257   2.76853
 Alpha virt. eigenvalues --    2.77934   2.84112   2.91557   2.95820   2.96355
 Alpha virt. eigenvalues --    3.05480   3.07055   3.08324   3.11705   3.12178
 Alpha virt. eigenvalues --    3.15554   3.15728   3.18446   3.18970   3.31162
 Alpha virt. eigenvalues --    3.34537   3.35838   3.38201   3.41183   3.42695
 Alpha virt. eigenvalues --    3.43663   3.47764   3.48548   3.57298   3.60362
 Alpha virt. eigenvalues --    3.77516   3.78412   3.83048   3.83508   4.28516
 Alpha virt. eigenvalues --    4.32189   4.36381  24.69929  24.76148  24.76423
 Alpha virt. eigenvalues --   26.10444  26.13319  26.16700
          Condensed to atoms (all electrons):
              1          2          3          4          5          6
     1  C    6.597846  -0.658185   0.305545  -0.521066  -0.316146   0.446077
     2  C   -0.658185   6.595224  -0.495462   0.345512   0.431240  -0.344889
     3  C    0.305545  -0.495462   7.272267  -0.310992  -1.356256   0.448220
     4  C   -0.521066   0.345512  -0.310992   7.257138   0.465787  -1.324280
     5  C   -0.316146   0.431240  -1.356256   0.465787   7.424624  -0.669271
     6  C    0.446077  -0.344889   0.448220  -1.324280  -0.669271   7.369346
     7  H   -0.062458   0.448934  -0.069581   0.007296   0.048758  -0.004005
     8  H    0.444517  -0.059173   0.003562  -0.067021  -0.000799   0.044031
     9  H   -0.061515   0.015625   0.004172   0.440395   0.007391  -0.074514
    10  H    0.016158  -0.062682   0.438186   0.001956  -0.076950   0.009017
    11  H    0.005173   0.002251   0.030095  -0.068666  -0.071587   0.442210
    12  H    0.002898   0.005676  -0.087694   0.031163   0.462225  -0.071605
              7          8          9         10         11         12
     1  C   -0.062458   0.444517  -0.061515   0.016158   0.005173   0.002898
     2  C    0.448934  -0.059173   0.015625  -0.062682   0.002251   0.005676
     3  C   -0.069581   0.003562   0.004172   0.438186   0.030095  -0.087694
     4  C    0.007296  -0.067021   0.440395   0.001956  -0.068666   0.031163
     5  C    0.048758  -0.000799   0.007391  -0.076950  -0.071587   0.462225
     6  C   -0.004005   0.044031  -0.074514   0.009017   0.442210  -0.071605
     7  H    0.438195  -0.006984   0.000844  -0.014310   0.000289   0.001043
     8  H   -0.006984   0.434624  -0.011790   0.000771   0.000757   0.000423
     9  H    0.000844  -0.011790   0.416955   0.000315  -0.005662   0.000504
    10  H   -0.014310   0.000771   0.000315   0.416348   0.000648  -0.006536
    11  H    0.000289   0.000757  -0.005662   0.000648   0.417838  -0.011207
    12  H    0.001043   0.000423   0.000504  -0.006536  -0.011207   0.422840
 Mulliken atomic charges:
              1
     1  C   -0.198843
     2  C   -0.224073
     3  C   -0.182062
     4  C   -0.257222
     5  C   -0.349016
     6  C   -0.270335
     7  H    0.211979
     8  H    0.217081
     9  H    0.267280
    10  H    0.277080
    11  H    0.257861
    12  H    0.250271
 Sum of Mulliken atomic charges =   0.00000
 Mulliken charges with hydrogens summed into heavy atoms:
              1
     1  C    0.018237
     2  C   -0.012093
     3  C    0.095018
     4  C    0.010057
     5  C   -0.098746
     6  C   -0.012474
 Sum of Mulliken charges with hydrogens summed into heavy atoms =   0.00000
 APT atomic charges:
              1
     1  C   -0.513574
     2  C   -0.509909
     3  C   -0.505951
     4  C   -0.553457
     5  C   -0.510540
     6  C   -0.460172
     7  H    0.508502
     8  H    0.513646
     9  H    0.502054
    10  H    0.508404
    11  H    0.512751
    12  H    0.508246
 Sum of APT charges=   0.00000
 APT Atomic charges with hydrogens summed into heavy atoms:
              1
     1  C    0.000072
     2  C   -0.001408
     3  C    0.002453
     4  C   -0.051403
     5  C   -0.002294
     6  C    0.052580
     7  H    0.000000
     8  H    0.000000
     9  H    0.000000
    10  H    0.000000
    11  H    0.000000
    12  H    0.000000
 Sum of APT charges=   0.00000
 Electronic spatial extent (au):  <R**2>=            657.9062
 Charge=              0.0000 electrons
 Dipole moment (field-independent basis, Debye):
    X=              0.0119    Y=             -0.0125    Z=              0.0017  Tot=              0.0173
 Quadrupole moment (field-independent basis, Debye-Ang):
   XX=            -30.2657   YY=            -30.3332   ZZ=            -42.2073
   XY=             -0.0301   XZ=              0.6654   YZ=              0.1006
 Traceless Quadrupole moment (field-independent basis, Debye-Ang):
   XX=              4.0030   YY=              3.9356   ZZ=             -7.9385
   XY=             -0.0301   XZ=              0.6654   YZ=              0.1006
 Octapole moment (field-independent basis, Debye-Ang**2):
  XXX=            -23.4490  YYY=            -14.3862  ZZZ=             -0.0324  XYY=             23.5470
  XXY=             13.6332  XXZ=             -1.5959  XZZ=             -0.0970  YZZ=              0.0086
  YYZ=              1.5764  XYZ=              1.3805
 Hexadecapole moment (field-independent basis, Debye-Ang**3):
 XXXX=           -409.6768 YYYY=           -410.8204 ZZZZ=            -53.8119 XXXY=              0.4532
 XXXZ=              2.1599 YYYX=             -0.2332 YYYZ=              0.7868 ZZZX=             -1.2670
 ZZZY=             -0.1941 XXYY=           -136.4597 XXZZ=            -94.1852 YYZZ=            -93.9048
 XXYZ=             -0.3671 YYXZ=              1.1229 ZZXY=             -0.0126
 N-N= 1.730875264257D+02 E-N=-8.827381921553D+02  KE= 2.300862538861D+02
  Exact polarizability:   0.000   0.000   0.000   0.000   0.000   0.000
 Approx polarizability:  79.756  -0.162  79.962   0.211   0.040  41.075
 No NMR shielding tensors so no spin-rotation constants.
 Leave Link  601 at Tue Dec  7 17:39:14 2021, MaxMem=  498073600 cpu:       1.7
 (Enter /apps/software//g09/l716.exe)
 Dipole        = 5.18815029D-03-9.79197463D-03 5.73911476D-04
 Polarizability= 0.00000000D+00 0.00000000D+00 0.00000000D+00
                 0.00000000D+00 0.00000000D+00 0.00000000D+00
 -------------------------------------------------------------------
 Center     Atomic                   Forces (Hartrees/Bohr)
 Number     Number              X              Y              Z
 -------------------------------------------------------------------
      1        6          -0.001059689    0.016459400   -0.004965530
      2        6          -0.008843001    0.013198792    0.005271216
      3        6           0.015023029   -0.007775438    0.000075755
      4        6          -0.006287552   -0.015000775   -0.001201810
      5        6           0.015720055    0.001507033   -0.001909578
      6        6          -0.013602846   -0.008831837    0.002867350
      7        1          -0.002799612   -0.000390214   -0.001458357
      8        1           0.001949546    0.000847947    0.001414521
      9        1           0.001168767   -0.001668668    0.000142392
     10        1          -0.000224953   -0.001729738    0.000056222
     11        1          -0.001800488    0.001212608   -0.000417228
     12        1           0.000756745    0.002170891    0.000125047
 -------------------------------------------------------------------
 Cartesian Forces:  Max     0.016459400 RMS     0.006846286
 Leave Link  716 at Tue Dec  7 17:39:14 2021, MaxMem=  498073600 cpu:       0.1
 (Enter /apps/software//g09/l9999.exe)

 This type of calculation cannot be archived.


 You never know when you're making a memory.
                        -- Rickie Lee Jones
 Job cpu time:  0 days 11 hours 55 minutes 31.6 seconds.
 File lengths (MBytes):  RWF=   4144 Int=      0 D2E=      0 Chk=      6 Scr=      1
 Normal termination of Gaussian 09 at Tue Dec  7 17:39:15 2021.
