 Entering Gaussian System, Link 0=g09
 Initial command:
 /apps/software//g09/l1.exe /scratch/itamar/2511.cluster.abaxnet/Gau-3251.inp -scrdir=/scratch/itamar/2511.cluster.abaxnet/
 Entering Link 1 = /apps/software//g09/l1.exe PID=      3252.
  
 Copyright (c) 1988,1990,1992,1993,1995,1998,2003,2009, Gaussian, Inc.
                  All Rights Reserved.
  
 This is part of the Gaussian(R) 09 program.  It is based on
 the Gaussian(R) 03 system (copyright 2003, Gaussian, Inc.),
 the Gaussian(R) 98 system (copyright 1998, Gaussian, Inc.),
 the Gaussian(R) 94 system (copyright 1995, Gaussian, Inc.),
 the Gaussian 92(TM) system (copyright 1992, Gaussian, Inc.),
 the Gaussian 90(TM) system (copyright 1990, Gaussian, Inc.),
 the Gaussian 88(TM) system (copyright 1988, Gaussian, Inc.),
 the Gaussian 86(TM) system (copyright 1986, Carnegie Mellon
 University), and the Gaussian 82(TM) system (copyright 1983,
 Carnegie Mellon University). Gaussian is a federally registered
 trademark of Gaussian, Inc.
  
 This software contains proprietary and confidential information,
 including trade secrets, belonging to Gaussian, Inc.
  
 This software is provided under written license and may be
 used, copied, transmitted, or stored only in accord with that
 written license.
  
 The following legend is applicable only to US Government
 contracts under FAR:
  
                    RESTRICTED RIGHTS LEGEND
  
 Use, reproduction and disclosure by the US Government is
 subject to restrictions as set forth in subparagraphs (a)
 and (c) of the Commercial Computer Software - Restricted
 Rights clause in FAR 52.227-19.
  
 Gaussian, Inc.
 340 Quinnipiac St., Bldg. 40, Wallingford CT 06492
  
  
 ---------------------------------------------------------------
 Warning -- This program may not be used in any manner that
 competes with the business of Gaussian, Inc. or will provide
 assistance to any competitor of Gaussian, Inc.  The licensee
 of this program is prohibited from giving any competitor of
 Gaussian, Inc. access to this program.  By using this program,
 the user acknowledges that Gaussian, Inc. is engaged in the
 business of creating and licensing software in the field of
 computational chemistry and represents and warrants to the
 licensee that it is not a competitor of Gaussian, Inc. and that
 it will not use this program in any manner prohibited above.
 ---------------------------------------------------------------
  

 Cite this work as:
 Gaussian 09, Revision A.02,
 M. J. Frisch, G. W. Trucks, H. B. Schlegel, G. E. Scuseria, 
 M. A. Robb, J. R. Cheeseman, G. Scalmani, V. Barone, B. Mennucci, 
 G. A. Petersson, H. Nakatsuji, M. Caricato, X. Li, H. P. Hratchian, 
 A. F. Izmaylov, J. Bloino, G. Zheng, J. L. Sonnenberg, M. Hada, 
 M. Ehara, K. Toyota, R. Fukuda, J. Hasegawa, M. Ishida, T. Nakajima, 
 Y. Honda, O. Kitao, H. Nakai, T. Vreven, J. A. Montgomery, Jr., 
 J. E. Peralta, F. Ogliaro, M. Bearpark, J. J. Heyd, E. Brothers, 
 K. N. Kudin, V. N. Staroverov, R. Kobayashi, J. Normand, 
 K. Raghavachari, A. Rendell, J. C. Burant, S. S. Iyengar, J. Tomasi, 
 M. Cossi, N. Rega, J. M. Millam, M. Klene, J. E. Knox, J. B. Cross, 
 V. Bakken, C. Adamo, J. Jaramillo, R. Gomperts, R. E. Stratmann, 
 O. Yazyev, A. J. Austin, R. Cammi, C. Pomelli, J. W. Ochterski, 
 R. L. Martin, K. Morokuma, V. G. Zakrzewski, G. A. Voth, 
 P. Salvador, J. J. Dannenberg, S. Dapprich, A. D. Daniels, 
 O. Farkas, J. B. Foresman, J. V. Ortiz, J. Cioslowski, 
 and D. J. Fox, Gaussian, Inc., Wallingford CT, 2009.
 
 ******************************************
 Gaussian 09:  EM64L-G09RevA.02 11-Jun-2009
                 3-Dec-2021 
 ******************************************
 %NProcShared=6
 Will use up to    6 processors via shared memory.
 %chk=/home/itamar/Aromaticity-test-set/T1-BLA/02/bla-02.chk
 -----------------------------
 #P MP2/6-311++G** DENSITY=MP2
 -----------------------------
 1/30=1,38=1/1;
 2/12=2,17=6,18=5,40=1/2;
 3/5=4,6=6,7=1111,11=9,16=1,25=1,30=1,71=1/1,2,3;
 4//1;
 5/5=2,38=5/2;
 8/6=4,10=2/1;
 9/15=1,16=-3/6;
 10/5=1,13=10/2;
 6/7=2,8=2,9=2,10=2,22=2/1;
 99/5=1,9=1/99;
 Leave Link    1 at Fri Dec  3 20:21:27 2021, MaxMem=          0 cpu:       0.2
 (Enter /apps/software//g09/l101.exe)
 -------
 Bla-0.2
 -------
 Symbolic Z-matrix:
 Charge =  0 Multiplicity = 1
 6                     0.64733   1.23668   0. 
 6                     1.39466  -0.05774   0. 
 6                     0.74733  -1.17895   0. 
 6                    -0.74733  -1.17895   0. 
 6                    -1.39466  -0.05774   0. 
 6                    -0.64733   1.23668   0. 
 1                     1.18954   2.17582   0. 
 1                     2.47909  -0.05774   0. 
 1                     1.28954  -2.11809   0. 
 1                    -1.28954  -2.11809   0. 
 1                    -2.47909  -0.05774   0. 
 1                    -1.18954   2.17582   0. 
 
 NAtoms=     12 NQM=     12 NQMF=      0 NMic=      0 NMicF=      0 NTot=     12.
                    Isotopes and Nuclear Properties:
 (Nuclear quadrupole moments (NQMom) in fm**2, nuclear magnetic moments (NMagM)
  in nuclear magnetons)

  Atom         1           2           3           4           5           6           7           8           9          10
 IAtWgt=          12          12          12          12          12          12           1           1           1           1
 AtmWgt=  12.0000000  12.0000000  12.0000000  12.0000000  12.0000000  12.0000000   1.0078250   1.0078250   1.0078250   1.0078250
 NucSpn=           0           0           0           0           0           0           1           1           1           1
 AtZEff=   0.0000000   0.0000000   0.0000000   0.0000000   0.0000000   0.0000000   0.0000000   0.0000000   0.0000000   0.0000000
 NQMom=    0.0000000   0.0000000   0.0000000   0.0000000   0.0000000   0.0000000   0.0000000   0.0000000   0.0000000   0.0000000
 NMagM=    0.0000000   0.0000000   0.0000000   0.0000000   0.0000000   0.0000000   2.7928460   2.7928460   2.7928460   2.7928460

  Atom        11          12
 IAtWgt=           1           1
 AtmWgt=   1.0078250   1.0078250
 NucSpn=           1           1
 AtZEff=   0.0000000   0.0000000
 NQMom=    0.0000000   0.0000000
 NMagM=    2.7928460   2.7928460
 Leave Link  101 at Fri Dec  3 20:21:27 2021, MaxMem=   33554432 cpu:       0.2
 (Enter /apps/software//g09/l202.exe)
                          Input orientation:                          
 ---------------------------------------------------------------------
 Center     Atomic      Atomic             Coordinates (Angstroms)
 Number     Number       Type             X           Y           Z
 ---------------------------------------------------------------------
      1          6           0        0.647332    1.236681    0.000000
      2          6           0        1.394663   -0.057735    0.000000
      3          6           0        0.747332   -1.178946    0.000000
      4          6           0       -0.747332   -1.178946    0.000000
      5          6           0       -1.394663   -0.057735    0.000000
      6          6           0       -0.647332    1.236681    0.000000
      7          1           0        1.189544    2.175821    0.000000
      8          1           0        2.479089   -0.057735    0.000000
      9          1           0        1.289544   -2.118086    0.000000
     10          1           0       -1.289544   -2.118086    0.000000
     11          1           0       -2.479089   -0.057735    0.000000
     12          1           0       -1.189544    2.175821    0.000000
 ---------------------------------------------------------------------
                    Distance matrix (angstroms):
                    1          2          3          4          5
     1  C    0.000000
     2  C    1.494663   0.000000
     3  C    2.417696   1.294663   0.000000
     4  C    2.789326   2.417697   1.494664   0.000000
     5  C    2.417696   2.789326   2.417697   1.294663   0.000000
     6  C    1.294664   2.417696   2.789326   2.417696   1.494663
     7  H    1.084425   2.242955   3.383787   3.873751   3.415684
     8  H    2.242955   1.084426   2.063031   3.415685   3.873752
     9  H    3.415684   2.063031   1.084425   2.242955   3.383787
    10  H    3.873751   3.383787   2.242955   1.084425   2.063031
    11  H    3.383788   3.873752   3.415685   2.063031   1.084426
    12  H    2.063031   3.415684   3.873751   3.383787   2.242955
                    6          7          8          9         10
     6  C    0.000000
     7  H    2.063031   0.000000
     8  H    3.383788   2.579089   0.000000
     9  H    3.873751   4.295071   2.379089   0.000000
    10  H    3.415684   4.958177   4.295072   2.579088   0.000000
    11  H    2.242955   4.295072   4.958178   4.295072   2.379089
    12  H    1.084425   2.379088   4.295072   4.958177   4.295071
                   11         12
    11  H    0.000000
    12  H    2.579089   0.000000
 Stoichiometry    C6H6
 Framework group  D3H[SGH(C6H6)]
 Deg. of freedom     4
 Full point group                 D3H     NOp  12
 Largest Abelian subgroup         C2V     NOp   4
 Largest concise Abelian subgroup C2      NOp   2
                         Standard orientation:                         
 ---------------------------------------------------------------------
 Center     Atomic      Atomic             Coordinates (Angstroms)
 Number     Number       Type             X           Y           Z
 ---------------------------------------------------------------------
      1          6           0        0.647332    1.236681    0.000000
      2          6           0        1.394663   -0.057735    0.000000
      3          6           0        0.747331   -1.178946    0.000000
      4          6           0       -0.747331   -1.178946    0.000000
      5          6           0       -1.394663   -0.057735    0.000000
      6          6           0       -0.647332    1.236681    0.000000
      7          1           0        1.189544    2.175821    0.000000
      8          1           0        2.479088   -0.057735    0.000000
      9          1           0        1.289544   -2.118086    0.000000
     10          1           0       -1.289544   -2.118086    0.000000
     11          1           0       -2.479088   -0.057735    0.000000
     12          1           0       -1.189544    2.175821    0.000000
 ---------------------------------------------------------------------
 Rotational constants (GHZ):      5.6953701      5.6953701      2.8476851
 Leave Link  202 at Fri Dec  3 20:21:27 2021, MaxMem=   33554432 cpu:       0.1
 (Enter /apps/software//g09/l301.exe)
 Standard basis: 6-311++G(d,p) (5D, 7F)
 Ernie: Thresh=  0.10000D-02 Tol=  0.10000D-05 Strict=F.
 There are    66 symmetry adapted basis functions of A1  symmetry.
 There are    21 symmetry adapted basis functions of A2  symmetry.
 There are    66 symmetry adapted basis functions of B1  symmetry.
 There are    21 symmetry adapted basis functions of B2  symmetry.
 Integral buffers will be    131072 words long.
 Raffenetti 1 integral format.
 Two-electron integral symmetry is turned on.
   174 basis functions,   270 primitive gaussians,   180 cartesian basis functions
    21 alpha electrons       21 beta electrons
       nuclear repulsion energy       203.9091479152 Hartrees.
 IExCor=    0 DFT=F Ex=HF Corr=None ExCW=0 ScaHFX=  1.000000
 ScaDFX=  1.000000  1.000000  1.000000  1.000000 ScalE2=  1.000000  1.000000
 IRadAn=      0 IRanWt=     -1 IRanGd=            0 ICorTp=0
 NAtoms=   12 NActive=   12 NUniq=    2 SFac= 3.00D+00 NAtFMM=   80 NAOKFM=F Big=F
 Leave Link  301 at Fri Dec  3 20:21:28 2021, MaxMem=   33554432 cpu:       0.3
 (Enter /apps/software//g09/l302.exe)
 NPDir=0 NMtPBC=     1 NCelOv=     1 NCel=       1 NClECP=     1 NCelD=      1
         NCelK=      1 NCelE2=     1 NClLst=     1 CellRange=     0.0.
 One-electron integrals computed using PRISM.
 One-electron integral symmetry used in STVInt
 NBasis=   174 RedAO= T  NBF=    66    21    66    21
 NBsUse=   174 1.00D-06 NBFU=    66    21    66    21
 Leave Link  302 at Fri Dec  3 20:21:28 2021, MaxMem=   33554432 cpu:       1.4
 (Enter /apps/software//g09/l303.exe)
 DipDrv:  MaxL=1.
 Leave Link  303 at Fri Dec  3 20:21:28 2021, MaxMem=   33554432 cpu:       0.2
 (Enter /apps/software//g09/l401.exe)
 Harris functional with IExCor=  205 diagonalized for initial guess.
 ExpMin= 3.60D-02 ExpMax= 4.56D+03 ExpMxC= 6.82D+02 IAcc=3 IRadAn=         0 AccDes= 0.00D+00
 HarFok:  IExCor=  205 AccDes= 0.00D+00 IRadAn=         0 IDoV= 1
 ScaDFX=  1.000000  1.000000  1.000000  1.000000
 FoFCou: FMM=F IPFlag=           0 FMFlag=      100000 FMFlg1=           0
         NFxFlg=           0 DoJE=T BraDBF=F KetDBF=T FulRan=T
         Omega=  0.000000  0.000000  1.000000  0.000000  0.000000 ICntrl=     500 IOpCl=  0
         NMat0=    1 NMatS0=    1 NMatT0=    0 NMatD0=    1 NMtDS0=    0 NMtDT0=    0
         I1Cent=           4 NGrid=           0.
 Petite list used in FoFCou.
 Harris En= -231.139097720938    
 Initial guess orbital symmetries:
       Occupied  (A1') (E') (E') (E') (E') (A2') (A1') (E') (E')
                 (E') (E') (A1') (A1') (A2') (E') (E') (A2") (E')
                 (E') (E") (E")
       Virtual   (E") (E") (A1') (A1") (E') (E') (E') (E') (A1')
                 (A2") (A2') (E') (E') (A1') (E") (E") (A1') (E')
                 (E') (E') (E') (E') (E') (E") (E") (A2') (E')
                 (E') (A1") (A1') (E') (E') (E') (E') (E') (E')
                 (A2') (A2') (A2') (E') (E') (E') (E') (A1') (A2')
                 (A1') (A2") (E') (E') (A2') (A1') (E") (E") (E')
                 (E') (E") (E") (A1") (E') (E') (E') (E') (A2')
                 (A1') (A2') (E') (E') (A2") (E') (E') (E') (E')
                 (A2') (A2") (E") (E") (E') (E') (E") (E") (A1')
                 (A2') (A1') (E') (E') (A1') (E") (E") (A1") (E')
                 (E') (E') (E') (A2") (E") (E") (E') (E') (A1')
                 (E") (E") (E') (E') (A2') (A2') (E') (E') (E")
                 (E") (A1") (A1") (A1') (E') (E') (E') (E') (E')
                 (E') (A2") (A2') (A1') (E") (E") (E') (E') (E')
                 (E') (A2') (E") (E") (A2') (E') (E') (A1') (A1")
                 (E') (E') (A1') (E') (E') (A2') (E') (E') (A2')
                 (E') (E') (A2') (A1') (E') (E') (A2') (E') (E')
 The electronic state of the initial guess is 1-A1'.
 Leave Link  401 at Fri Dec  3 20:21:28 2021, MaxMem=   33554432 cpu:       2.1
 (Enter /apps/software//g09/l502.exe)
 Closed shell SCF:
 Requested convergence on RMS density matrix=1.00D-08 within 128 cycles.
 Requested convergence on MAX density matrix=1.00D-06.
 Requested convergence on             energy=1.00D-06.
 No special actions if energy rises.
 Using DIIS extrapolation, IDIIS=  1040.
 Integral symmetry usage will be decided dynamically.
 IEnd=      118670 IEndB=      118670 NGot=    33554432 MDV=    33484983
 LenX=    33484983 LenY=    33452142
 Fock matrices will be formed incrementally for  20 cycles.

 Cycle   1  Pass 0  IDiag  1:
 FoFCou: FMM=F IPFlag=           0 FMFlag=      100000 FMFlg1=           0
         NFxFlg=           0 DoJE=F BraDBF=F KetDBF=F FulRan=T
         Omega=  0.000000  0.000000  1.000000  0.000000  0.000000 ICntrl=       0 IOpCl=  0
         NMat0=    1 NMatS0=    1 NMatT0=    0 NMatD0=    1 NMtDS0=    0 NMtDT0=    0
         I1Cent=           0 NGrid=           0.
 Petite list used in FoFCou.
 E= -230.406445689954    
 DIIS: error= 6.90D-02 at cycle   1 NSaved=   1.
 NSaved= 1 IEnMin= 1 EnMin= -230.406445689954     IErMin= 1 ErrMin= 6.90D-02
 ErrMax= 6.90D-02 EMaxC= 1.00D-01 BMatC= 5.38D-01 BMatP= 5.38D-01
 IDIUse=3 WtCom= 3.10D-01 WtEn= 6.90D-01
 Coeff-Com:  0.100D+01
 Coeff-En:   0.100D+01
 Coeff:      0.100D+01
 Gap=     0.344 Goal=   None    Shift=    0.000
 GapD=    0.344 DampG=1.000 DampE=0.500 DampFc=0.5000 IDamp=-1.
 Damping current iteration by 5.00D-01
 RMSDP=1.09D-02 MaxDP=2.96D-01              OVMax= 1.59D-01

 Cycle   2  Pass 0  IDiag  1:
 RMSU=  3.44D-03    CP:  1.13D+00
 E= -230.576436224786     Delta-E=       -0.169990534832 Rises=F Damp=T
 DIIS: error= 3.10D-02 at cycle   2 NSaved=   2.
 NSaved= 2 IEnMin= 2 EnMin= -230.576436224786     IErMin= 2 ErrMin= 3.10D-02
 ErrMax= 3.10D-02 EMaxC= 1.00D-01 BMatC= 1.13D-01 BMatP= 5.38D-01
 IDIUse=3 WtCom= 6.90D-01 WtEn= 3.10D-01
 Coeff-Com: -0.673D+00 0.167D+01
 Coeff-En:   0.000D+00 0.100D+01
 Coeff:     -0.464D+00 0.146D+01
 Gap=     0.400 Goal=   None    Shift=    0.000
 RMSDP=5.55D-03 MaxDP=1.77D-01 DE=-1.70D-01 OVMax= 5.06D-02

 Cycle   3  Pass 0  IDiag  1:
 RMSU=  2.07D-03    CP:  1.21D+00  1.92D+00
 E= -230.728122828349     Delta-E=       -0.151686603563 Rises=F Damp=F
 DIIS: error= 5.10D-03 at cycle   3 NSaved=   3.
 NSaved= 3 IEnMin= 3 EnMin= -230.728122828349     IErMin= 3 ErrMin= 5.10D-03
 ErrMax= 5.10D-03 EMaxC= 1.00D-01 BMatC= 1.24D-03 BMatP= 1.13D-01
 IDIUse=3 WtCom= 9.49D-01 WtEn= 5.10D-02
 Coeff-Com: -0.875D-01 0.138D+00 0.949D+00
 Coeff-En:   0.000D+00 0.000D+00 0.100D+01
 Coeff:     -0.830D-01 0.131D+00 0.952D+00
 Gap=     0.392 Goal=   None    Shift=    0.000
 RMSDP=1.09D-03 MaxDP=3.25D-02 DE=-1.52D-01 OVMax= 9.16D-03

 Cycle   4  Pass 0  IDiag  1:
 RMSU=  2.62D-04    CP:  1.23D+00  2.09D+00  1.17D+00
 E= -230.729367380143     Delta-E=       -0.001244551793 Rises=F Damp=F
 DIIS: error= 1.08D-03 at cycle   4 NSaved=   4.
 NSaved= 4 IEnMin= 4 EnMin= -230.729367380143     IErMin= 4 ErrMin= 1.08D-03
 ErrMax= 1.08D-03 EMaxC= 1.00D-01 BMatC= 3.47D-05 BMatP= 1.24D-03
 IDIUse=3 WtCom= 9.89D-01 WtEn= 1.08D-02
 Coeff-Com:  0.792D-02-0.202D-01-0.189D-02 0.101D+01
 Coeff-En:   0.000D+00 0.000D+00 0.000D+00 0.100D+01
 Coeff:      0.783D-02-0.200D-01-0.187D-02 0.101D+01
 Gap=     0.391 Goal=   None    Shift=    0.000
 RMSDP=2.03D-04 MaxDP=5.72D-03 DE=-1.24D-03 OVMax= 2.87D-03

 Cycle   5  Pass 0  IDiag  1:
 RMSU=  4.46D-05    CP:  1.23D+00  2.12D+00  1.20D+00  1.12D+00
 E= -230.729444732851     Delta-E=       -0.000077352708 Rises=F Damp=F
 DIIS: error= 3.87D-04 at cycle   5 NSaved=   5.
 NSaved= 5 IEnMin= 5 EnMin= -230.729444732851     IErMin= 5 ErrMin= 3.87D-04
 ErrMax= 3.87D-04 EMaxC= 1.00D-01 BMatC= 3.63D-06 BMatP= 3.47D-05
 IDIUse=3 WtCom= 9.96D-01 WtEn= 3.87D-03
 Coeff-Com:  0.265D-02-0.275D-02-0.507D-01-0.251D+00 0.130D+01
 Coeff-En:   0.000D+00 0.000D+00 0.000D+00 0.000D+00 0.100D+01
 Coeff:      0.264D-02-0.274D-02-0.505D-01-0.250D+00 0.130D+01
 Gap=     0.392 Goal=   None    Shift=    0.000
 RMSDP=5.46D-05 MaxDP=6.90D-04 DE=-7.74D-05 OVMax= 2.26D-03

 Cycle   6  Pass 0  IDiag  1:
 RMSU=  1.55D-05    CP:  1.23D+00  2.12D+00  1.21D+00  1.16D+00  1.53D+00
 E= -230.729460223821     Delta-E=       -0.000015490970 Rises=F Damp=F
 DIIS: error= 1.57D-04 at cycle   6 NSaved=   6.
 NSaved= 6 IEnMin= 6 EnMin= -230.729460223821     IErMin= 6 ErrMin= 1.57D-04
 ErrMax= 1.57D-04 EMaxC= 1.00D-01 BMatC= 3.02D-07 BMatP= 3.63D-06
 IDIUse=3 WtCom= 9.98D-01 WtEn= 1.57D-03
 Coeff-Com: -0.203D-02 0.274D-02 0.300D-01 0.935D-01-0.724D+00 0.160D+01
 Coeff-En:   0.000D+00 0.000D+00 0.000D+00 0.000D+00 0.000D+00 0.100D+01
 Coeff:     -0.202D-02 0.274D-02 0.300D-01 0.934D-01-0.723D+00 0.160D+01
 Gap=     0.392 Goal=   None    Shift=    0.000
 RMSDP=3.07D-05 MaxDP=8.08D-04 DE=-1.55D-05 OVMax= 1.16D-03

 Cycle   7  Pass 0  IDiag  1:
 RMSU=  4.14D-06    CP:  1.23D+00  2.12D+00  1.21D+00  1.15D+00  1.70D+00
                    CP:  1.59D+00
 E= -230.729462391808     Delta-E=       -0.000002167987 Rises=F Damp=F
 DIIS: error= 4.44D-05 at cycle   7 NSaved=   7.
 NSaved= 7 IEnMin= 7 EnMin= -230.729462391808     IErMin= 7 ErrMin= 4.44D-05
 ErrMax= 4.44D-05 EMaxC= 1.00D-01 BMatC= 2.49D-08 BMatP= 3.02D-07
 IDIUse=1 WtCom= 1.00D+00 WtEn= 0.00D+00
 Coeff-Com:  0.732D-04-0.109D-03-0.224D-02-0.700D-03 0.593D-01-0.470D+00
 Coeff-Com:  0.141D+01
 Coeff:      0.732D-04-0.109D-03-0.224D-02-0.700D-03 0.593D-01-0.470D+00
 Coeff:      0.141D+01
 Gap=     0.392 Goal=   None    Shift=    0.000
 RMSDP=5.46D-06 MaxDP=8.57D-05 DE=-2.17D-06 OVMax= 4.06D-04

 Initial convergence to 1.0D-05 achieved.  Increase integral accuracy.
 Cycle   8  Pass 1  IDiag  1:
 E= -230.729462574231     Delta-E=       -0.000000182423 Rises=F Damp=F
 DIIS: error= 3.82D-06 at cycle   1 NSaved=   1.
 NSaved= 1 IEnMin= 1 EnMin= -230.729462574231     IErMin= 1 ErrMin= 3.82D-06
 ErrMax= 3.82D-06 EMaxC= 1.00D-01 BMatC= 4.58D-10 BMatP= 4.58D-10
 IDIUse=1 WtCom= 1.00D+00 WtEn= 0.00D+00
 Coeff-Com:  0.100D+01
 Coeff:      0.100D+01
 Gap=     0.392 Goal=   None    Shift=    0.000
 RMSDP=5.46D-06 MaxDP=8.57D-05 DE=-1.82D-07 OVMax= 1.65D-05

 Cycle   9  Pass 1  IDiag  1:
 RMSU=  6.50D-07    CP:  1.00D+00
 E= -230.729462575688     Delta-E=       -0.000000001458 Rises=F Damp=F
 DIIS: error= 2.36D-06 at cycle   2 NSaved=   2.
 NSaved= 2 IEnMin= 2 EnMin= -230.729462575688     IErMin= 2 ErrMin= 2.36D-06
 ErrMax= 2.36D-06 EMaxC= 1.00D-01 BMatC= 8.40D-11 BMatP= 4.58D-10
 IDIUse=1 WtCom= 1.00D+00 WtEn= 0.00D+00
 Coeff-Com: -0.489D+00 0.149D+01
 Coeff:     -0.489D+00 0.149D+01
 Gap=     0.392 Goal=   None    Shift=    0.000
 RMSDP=4.06D-07 MaxDP=9.97D-06 DE=-1.46D-09 OVMax= 1.47D-05

 Cycle  10  Pass 1  IDiag  1:
 RMSU=  1.09D-07    CP:  1.00D+00  1.34D+00
 E= -230.729462576170     Delta-E=       -0.000000000482 Rises=F Damp=F
 DIIS: error= 8.48D-07 at cycle   3 NSaved=   3.
 NSaved= 3 IEnMin= 3 EnMin= -230.729462576170     IErMin= 3 ErrMin= 8.48D-07
 ErrMax= 8.48D-07 EMaxC= 1.00D-01 BMatC= 9.63D-12 BMatP= 8.40D-11
 IDIUse=1 WtCom= 1.00D+00 WtEn= 0.00D+00
 Coeff-Com: -0.315D-01-0.232D+00 0.126D+01
 Coeff:     -0.315D-01-0.232D+00 0.126D+01
 Gap=     0.392 Goal=   None    Shift=    0.000
 RMSDP=8.67D-08 MaxDP=1.35D-06 DE=-4.82D-10 OVMax= 6.22D-06

 Cycle  11  Pass 1  IDiag  1:
 RMSU=  2.86D-08    CP:  1.00D+00  1.35D+00  1.46D+00
 E= -230.729462576237     Delta-E=       -0.000000000067 Rises=F Damp=F
 DIIS: error= 2.58D-07 at cycle   4 NSaved=   4.
 NSaved= 4 IEnMin= 4 EnMin= -230.729462576237     IErMin= 4 ErrMin= 2.58D-07
 ErrMax= 2.58D-07 EMaxC= 1.00D-01 BMatC= 9.43D-13 BMatP= 9.63D-12
 IDIUse=1 WtCom= 1.00D+00 WtEn= 0.00D+00
 Coeff-Com:  0.616D-01-0.536D-01-0.558D+00 0.155D+01
 Coeff:      0.616D-01-0.536D-01-0.558D+00 0.155D+01
 Gap=     0.392 Goal=   None    Shift=    0.000
 RMSDP=6.85D-08 MaxDP=1.74D-06 DE=-6.71D-11 OVMax= 2.43D-06

 Cycle  12  Pass 1  IDiag  1:
 RMSU=  5.50D-09    CP:  1.00D+00  1.32D+00  1.62D+00  1.73D+00
 E= -230.729462576240     Delta-E=       -0.000000000003 Rises=F Damp=F
 DIIS: error= 1.80D-08 at cycle   5 NSaved=   5.
 NSaved= 5 IEnMin= 5 EnMin= -230.729462576240     IErMin= 5 ErrMin= 1.80D-08
 ErrMax= 1.80D-08 EMaxC= 1.00D-01 BMatC= 1.46D-14 BMatP= 9.43D-13
 IDIUse=1 WtCom= 1.00D+00 WtEn= 0.00D+00
 Coeff-Com: -0.174D-01 0.237D-01 0.116D+00-0.430D+00 0.131D+01
 Coeff:     -0.174D-01 0.237D-01 0.116D+00-0.430D+00 0.131D+01
 Gap=     0.392 Goal=   None    Shift=    0.000
 RMSDP=4.79D-09 MaxDP=8.27D-08 DE=-2.56D-12 OVMax= 1.80D-07

 SCF Done:  E(RHF) =  -230.729462576     A.U. after   12 cycles
             Convg  =    0.4790D-08             -V/T =  2.0000
 KE= 2.307360980776D+02 PE=-9.449090224157D+02 EE= 2.795343138467D+02
 Leave Link  502 at Fri Dec  3 20:21:34 2021, MaxMem=   33554432 cpu:      35.2
 (Enter /apps/software//g09/l801.exe)
 ExpMin= 3.60D-02 ExpMax= 4.56D+03 ExpMxC= 6.82D+02 IAcc=3 IRadAn=         5 AccDes= 0.00D+00
 HarFok:  IExCor=  205 AccDes= 0.00D+00 IRadAn=         5 IDoV=-2
 ScaDFX=  1.000000  1.000000  1.000000  1.000000
 Largest valence mixing into a core orbital is  1.49D-04
 Largest core mixing into a valence orbital is  3.99D-05
 Range of M.O.s used for correlation:     7   174
 NBasis=   174 NAE=    21 NBE=    21 NFC=     6 NFV=     0
 NROrb=    168 NOA=    15 NOB=    15 NVA=   153 NVB=   153

 **** Warning!!: The largest alpha MO coefficient is  0.23757942D+03

 Leave Link  801 at Fri Dec  3 20:21:34 2021, MaxMem=   33554432 cpu:       1.3
 (Enter /apps/software//g09/l906.exe)
 Frozen-core derivative calculation, NFC=   6 NFV=   0.
 FulOut=F Deriv=T AODrv=F NAtomX=    12
   MMem=          20  MDisk=          15 MDiskD=          15
  W3Min=      657720 MinDsk=     1009670 NBas6D=         180
 NBas2D=       16542    NTT=       16290    LW2=     2040000
    MDV=    33168040 MDiskM=        2404 NBas2p=        8395
 Fully direct method using O(ONN) memory.
 IMap=   1   2   3   4   5   6   7   8   9  10  11  12  13  14  15  16  17  18  19  20
 IMap=  21
 JobTyp=1 Pass  1:  I=   7 to   8 NPSUse=  3 ParTrn=F ParDer=T DoDerP=T.
 JobTyp=1 Pass  2:  I=   9 to  10 NPSUse=  3 ParTrn=F ParDer=T DoDerP=T.
 JobTyp=1 Pass  3:  I=  11 to  12 NPSUse=  3 ParTrn=F ParDer=T DoDerP=T.
 JobTyp=1 Pass  4:  I=  13 to  14 NPSUse=  3 ParTrn=F ParDer=T DoDerP=T.
 JobTyp=1 Pass  5:  I=  15 to  16 NPSUse=  3 ParTrn=F ParDer=T DoDerP=T.
 JobTyp=1 Pass  6:  I=  17 to  18 NPSUse=  3 ParTrn=F ParDer=T DoDerP=T.
 JobTyp=1 Pass  7:  I=  19 to  20 NPSUse=  3 ParTrn=F ParDer=T DoDerP=T.
 JobTyp=1 Pass  8:  I=  21 to  21 NPSUse=  3 ParTrn=F ParDer=T DoDerP=T.
 Spin components of T(2) and E(2):
     alpha-alpha T2 =       0.3979720365D-01 E2=     -0.1049044384D+00
     alpha-beta  T2 =       0.2174094862D+00 E2=     -0.6085137959D+00
     beta-beta   T2 =       0.3979720365D-01 E2=     -0.1049044384D+00
 The integrals were generated   8 times.
 ANorm=    0.1138860788D+01
 E2 =    -0.8183226726D+00 EUMP2 =    -0.23154778524884D+03
 Leave Link  906 at Fri Dec  3 20:22:33 2021, MaxMem=   33554432 cpu:     321.7
 (Enter /apps/software//g09/l1002.exe)
 Minotr:  Closed shell wavefunction.
          Computing MP2/KS-MP2 derivatives.
          Using Z-Vector for PSCF gradient.
          Skipping F1 and S1 gradient terms here.
          Frozen-core window.
          Direct CPHF calculation.
          Differentiating once with respect to electric field.
                with respect to dipole field.
          Electric field/nuclear overlap derivatives assumed to be zero.
          Using symmetry in CPHF.
          Requested convergence is 1.0D-10 RMS, and 1.0D-09 maximum.
          NewPWx=F KeepS1=T KeepF1=T KeepIn=T MapXYZ=F SortEE=F KeepMc=T.
          MDV=      33554332 using IRadAn=       0.
          Solving linear equations separately, MaxMat=       0.
          There are     1 degrees of freedom in the 1st order CPHF.  IDoFFX=0.
 Petite list used in FoFDir.
 MinBra= 0 MaxBra= 2 Meth= 1.
 IRaf=       0 NMat=   1 IRICut=       1 DoRegI=T DoRafI=F ISym2E= 1 JSym2E=1.
 LinEq1:  Iter=  0 NonCon=     1 RMS=3.57D-03 Max=6.29D-02
 AX will form     1 AO Fock derivatives at one time.
 LinEq1:  Iter=  1 NonCon=     1 RMS=9.35D-04 Max=1.71D-02
 LinEq1:  Iter=  2 NonCon=     1 RMS=3.81D-04 Max=7.43D-03
 LinEq1:  Iter=  3 NonCon=     1 RMS=9.45D-05 Max=1.38D-03
 LinEq1:  Iter=  4 NonCon=     1 RMS=1.85D-05 Max=2.97D-04
 LinEq1:  Iter=  5 NonCon=     1 RMS=2.23D-06 Max=4.31D-05
 LinEq1:  Iter=  6 NonCon=     1 RMS=2.83D-07 Max=2.87D-06
 LinEq1:  Iter=  7 NonCon=     1 RMS=5.30D-08 Max=7.53D-07
 LinEq1:  Iter=  8 NonCon=     1 RMS=6.12D-09 Max=1.08D-07
 LinEq1:  Iter=  9 NonCon=     1 RMS=5.03D-10 Max=5.23D-09
 LinEq1:  Iter= 10 NonCon=     0 RMS=4.10D-11 Max=5.67D-10
 Linear equations converged to 1.000D-10 1.000D-09 after    10 iterations.
 End of Minotr Frequency-dependent properties file   721 does not exist.
 End of Minotr Frequency-dependent properties file   722 does not exist.
 Leave Link 1002 at Fri Dec  3 20:22:39 2021, MaxMem=   33554432 cpu:      38.0
 (Enter /apps/software//g09/l601.exe)
 Copying SCF densities to generalized density rwf, IOpCl= 0 IROHF=0.

 **********************************************************************

            Population analysis using the MP2 density.

 **********************************************************************

 Orbital symmetries:
       Occupied  (A1') (E') (E') (E') (E') (A2') (A1') (E') (E')
                 (E') (E') (A1') (A2') (A1') (E') (E') (A2") (E')
                 (E') (E") (E")
       Virtual   (A1') (E') (E') (E') (E') (A2') (E") (E") (A2")
                 (E") (E") (A1') (A1') (E') (E') (E') (E') (A1')
                 (A1") (E') (E') (A2') (E") (E") (E') (E') (E')
                 (E') (E') (E') (A2') (A2') (A1') (A1") (E') (E')
                 (E') (E') (A2') (E') (E') (E') (E') (A1') (A1')
                 (A2') (A2") (E') (E') (E") (E") (E') (E') (A2')
                 (A1') (E") (E") (A1") (E') (E') (A1') (E') (E')
                 (A2') (E') (E') (E') (E') (A2') (E') (E') (A2")
                 (A2') (E') (E') (A2") (E") (E") (E") (E") (A2')
                 (A1') (A1') (E') (E') (A1") (A1') (E") (E") (E')
                 (E') (E') (E') (A2") (E") (E") (E') (E') (A1')
                 (E') (E') (A2') (E") (E") (A2') (E') (E') (E")
                 (E") (A1") (A1") (E') (E') (A1') (E') (E') (E')
                 (E') (A1') (A2') (E') (E') (E') (E') (A2") (A2')
                 (E") (E") (A2') (E") (E") (E') (E') (A1") (A1')
                 (E') (E') (A1') (E') (E') (A2') (E') (E') (A2')
                 (E') (E') (A2') (A1') (E') (E') (A2') (E') (E')
 The electronic state is 1-A1'.
 Alpha  occ. eigenvalues --  -11.23311 -11.23264 -11.23264 -11.23079 -11.23079
 Alpha  occ. eigenvalues --  -11.23029  -1.15372  -1.02538  -1.02538  -0.81454
 Alpha  occ. eigenvalues --   -0.81454  -0.71020  -0.64097  -0.61795  -0.59560
 Alpha  occ. eigenvalues --   -0.59560  -0.50302  -0.48295  -0.48295  -0.34954
 Alpha  occ. eigenvalues --   -0.34954
 Alpha virt. eigenvalues --    0.04235   0.04907   0.04907   0.06640   0.06640
 Alpha virt. eigenvalues --    0.08820   0.11584   0.11584   0.12865   0.15392
 Alpha virt. eigenvalues --    0.15392   0.15827   0.16294   0.18109   0.18109
 Alpha virt. eigenvalues --    0.18370   0.18370   0.19299   0.20942   0.21257
 Alpha virt. eigenvalues --    0.21257   0.21741   0.22140   0.22140   0.22842
 Alpha virt. eigenvalues --    0.22842   0.25041   0.25041   0.28885   0.28885
 Alpha virt. eigenvalues --    0.30317   0.33314   0.33464   0.37231   0.39724
 Alpha virt. eigenvalues --    0.39724   0.42665   0.42665   0.43873   0.48659
 Alpha virt. eigenvalues --    0.48659   0.52747   0.52747   0.59154   0.62232
 Alpha virt. eigenvalues --    0.69649   0.70890   0.71019   0.71019   0.75273
 Alpha virt. eigenvalues --    0.75273   0.76558   0.76558   0.78080   0.80178
 Alpha virt. eigenvalues --    0.82705   0.82705   0.88979   0.90309   0.90309
 Alpha virt. eigenvalues --    0.97618   1.00358   1.00358   1.01916   1.01960
 Alpha virt. eigenvalues --    1.01960   1.06208   1.06208   1.06838   1.13178
 Alpha virt. eigenvalues --    1.13178   1.15771   1.20022   1.22057   1.22057
 Alpha virt. eigenvalues --    1.27930   1.32129   1.32129   1.40468   1.40468
 Alpha virt. eigenvalues --    1.52433   1.54696   1.67928   1.78728   1.78728
 Alpha virt. eigenvalues --    1.82575   1.83707   1.83851   1.83851   1.87438
 Alpha virt. eigenvalues --    1.87438   1.96399   1.96399   1.99448   2.05992
 Alpha virt. eigenvalues --    2.05992   2.11329   2.11329   2.13430   2.23240
 Alpha virt. eigenvalues --    2.23240   2.24199   2.24228   2.24228   2.30557
 Alpha virt. eigenvalues --    2.39234   2.39234   2.39430   2.39430   2.64350
 Alpha virt. eigenvalues --    2.66742   2.73130   2.73130   2.75030   2.82552
 Alpha virt. eigenvalues --    2.82552   2.95497   2.95497   2.98529   2.99768
 Alpha virt. eigenvalues --    3.01353   3.01353   3.05781   3.05781   3.06627
 Alpha virt. eigenvalues --    3.09039   3.19296   3.19296   3.28763   3.29881
 Alpha virt. eigenvalues --    3.29881   3.32581   3.32581   3.48168   3.48243
 Alpha virt. eigenvalues --    3.68447   3.68447   3.99760   4.01966   4.01966
 Alpha virt. eigenvalues --    4.07451   4.38755   4.38755   4.48182   4.54220
 Alpha virt. eigenvalues --    4.54220   5.19043  24.73332  24.92574  24.92574
 Alpha virt. eigenvalues --   25.56817  25.58955  25.58955
          Condensed to atoms (all electrons):
              1          2          3          4          5          6
     1  C    8.371165  -2.335466   2.023755  -1.762018   2.023755  -2.424612
     2  C   -2.335466   8.371165  -2.424612   2.023755  -1.762018   2.023755
     3  C    2.023755  -2.424612   8.371165  -2.335466   2.023755  -1.762018
     4  C   -1.762018   2.023755  -2.335466   8.371165  -2.424612   2.023755
     5  C    2.023755  -1.762018   2.023755  -2.424612   8.371165  -2.335466
     6  C   -2.424612   2.023755  -1.762018   2.023755  -2.335466   8.371165
     7  H    0.497227  -0.134049   0.040528  -0.010677   0.041835  -0.154528
     8  H   -0.134049   0.497227  -0.154528   0.041835  -0.010677   0.040528
     9  H    0.041835  -0.154528   0.497227  -0.134049   0.040528  -0.010677
    10  H   -0.010677   0.040528  -0.134049   0.497227  -0.154528   0.041835
    11  H    0.040528  -0.010677   0.041835  -0.154528   0.497227  -0.134049
    12  H   -0.154528   0.041835  -0.010677   0.040528  -0.134049   0.497227
              7          8          9         10         11         12
     1  C    0.497227  -0.134049   0.041835  -0.010677   0.040528  -0.154528
     2  C   -0.134049   0.497227  -0.154528   0.040528  -0.010677   0.041835
     3  C    0.040528  -0.154528   0.497227  -0.134049   0.041835  -0.010677
     4  C   -0.010677   0.041835  -0.134049   0.497227  -0.154528   0.040528
     5  C    0.041835  -0.010677   0.040528  -0.154528   0.497227  -0.134049
     6  C   -0.154528   0.040528  -0.010677   0.041835  -0.134049   0.497227
     7  H    0.565492  -0.005267  -0.000475   0.000899  -0.000475  -0.017425
     8  H   -0.005267   0.565492  -0.017425  -0.000475   0.000899  -0.000475
     9  H   -0.000475  -0.017425   0.565492  -0.005267  -0.000475   0.000899
    10  H    0.000899  -0.000475  -0.005267   0.565492  -0.017425  -0.000475
    11  H   -0.000475   0.000899  -0.000475  -0.017425   0.565492  -0.005267
    12  H   -0.017425  -0.000475   0.000899  -0.000475  -0.005267   0.565492
 Mulliken atomic charges:
              1
     1  C   -0.176914
     2  C   -0.176914
     3  C   -0.176914
     4  C   -0.176914
     5  C   -0.176914
     6  C   -0.176914
     7  H    0.176914
     8  H    0.176914
     9  H    0.176914
    10  H    0.176914
    11  H    0.176914
    12  H    0.176914
 Sum of Mulliken atomic charges =   0.00000
 Mulliken charges with hydrogens summed into heavy atoms:
              1
     1  C    0.000000
     2  C    0.000000
     3  C    0.000000
     4  C    0.000000
     5  C    0.000000
     6  C    0.000000
 Sum of Mulliken charges with hydrogens summed into heavy atoms =   0.00000
 Electronic spatial extent (au):  <R**2>=            460.7129
 Charge=              0.0000 electrons
 Dipole moment (field-independent basis, Debye):
    X=              0.0000    Y=              0.0000    Z=              0.0000  Tot=              0.0000
 Quadrupole moment (field-independent basis, Debye-Ang):
   XX=            -32.4916   YY=            -32.4916   ZZ=            -40.5644
   XY=              0.0000   XZ=              0.0000   YZ=              0.0000
 Traceless Quadrupole moment (field-independent basis, Debye-Ang):
   XX=              2.6909   YY=              2.6909   ZZ=             -5.3819
   XY=              0.0000   XZ=              0.0000   YZ=              0.0000
 Octapole moment (field-independent basis, Debye-Ang**2):
  XXX=              0.0000  YYY=              0.4495  ZZZ=              0.0000  XYY=              0.0000
  XXY=             -0.4495  XXZ=              0.0000  XZZ=              0.0000  YZZ=              0.0000
  YYZ=              0.0000  XYZ=              0.0000
 Hexadecapole moment (field-independent basis, Debye-Ang**3):
 XXXX=           -279.5510 YYYY=           -279.5510 ZZZZ=            -50.3742 XXXY=              0.0000
 XXXZ=              0.0000 YYYX=              0.0000 YYYZ=              0.0000 ZZZX=              0.0000
 ZZZY=              0.0000 XXYY=            -93.1837 XXZZ=            -65.8039 YYZZ=            -65.8039
 XXYZ=              0.0000 YYXZ=              0.0000 ZZXY=              0.0000
 N-N= 2.039091479152D+02 E-N=-9.456645910802D+02  KE= 2.317141470524D+02
 Symmetry A1   KE= 1.151078049231D+02
 Symmetry A2   KE= 2.360547222268D+00
 Symmetry B1   KE= 1.101352014270D+02
 Symmetry B2   KE= 4.110593480000D+00
 No NMR shielding tensors so no spin-rotation constants.
 Leave Link  601 at Fri Dec  3 20:22:39 2021, MaxMem=   33554432 cpu:       2.0
 (Enter /apps/software//g09/l9999.exe)
 1\1\GINC-DLT01\SP\RMP2-FC\6-311++G(d,p)\C6H6\ITAMAR\03-Dec-2021\0\\#P 
 MP2/6-311++G** DENSITY=MP2\\Bla-0.2\\0,1\C,0,0.647332,1.236681,0.\C,0,
 1.394663,-0.057735,0.\C,0,0.747332,-1.178946,0.\C,0,-0.747332,-1.17894
 6,0.\C,0,-1.394663,-0.057735,0.\C,0,-0.647332,1.236681,0.\H,0,1.189544
 ,2.175821,0.\H,0,2.479089,-0.057735,0.\H,0,1.289544,-2.118086,0.\H,0,-
 1.289544,-2.118086,0.\H,0,-2.479089,-0.057735,0.\H,0,-1.189544,2.17582
 1,0.\\Version=EM64L-G09RevA.02\State=1-A1'\HF=-230.7294626\MP2=-231.54
 77852\RMSD=4.790e-09\Dipole=0.,0.,0.\Quadrupole=2.0006459,2.0006459,-4
 .0012919,0.,0.,0.\PG=D03H [SGH(C6H6)]\\@


 Change starts when someone sees the next step.
                            -- William Drayton
 Job cpu time:  0 days  0 hours  6 minutes 43.5 seconds.
 File lengths (MBytes):  RWF=     20 Int=      0 D2E=      0 Chk=      4 Scr=      1
 Normal termination of Gaussian 09 at Fri Dec  3 20:22:39 2021.
