Chair-5                                                                 
SP        RMP2-FC                                                     6-311++G(d,p)       
Number of atoms                            I               12
Info1-9                                    I   N=           9
          23          21           0           0           0         110
           1           2           1
Charge                                     I                0
Multiplicity                               I                1
Number of electrons                        I               42
Number of alpha electrons                  I               21
Number of beta electrons                   I               21
Number of basis functions                  I              174
Number of independent functions            I              174
Number of point charges in /Mol/           I                0
Number of translation vectors              I                0
Atomic numbers                             I   N=          12
           6           6           6           6           6           6
           1           1           1           1           1           1
Nuclear charges                            R   N=          12
  6.00000000E+00  6.00000000E+00  6.00000000E+00  6.00000000E+00  6.00000000E+00
  6.00000000E+00  1.00000000E+00  1.00000000E+00  1.00000000E+00  1.00000000E+00
  1.00000000E+00  1.00000000E+00
Current cartesian coordinates              R   N=          36
  3.83122902E-02  2.63326802E+00 -2.07615248E-31 -3.83122902E-02  1.31754273E+00
  2.28284208E+00  3.83122902E-02 -1.31754273E+00  2.28284208E+00 -3.83122902E-02
 -2.63326802E+00 -8.47409176E-33  3.83122902E-02 -1.31754273E+00 -2.28284208E+00
 -3.83122902E-02  1.31754273E+00 -2.28284208E+00  3.03511095E-02  4.68272348E+00
 -4.36030539E-31 -3.00644345E-02  2.34325749E+00  4.05700768E+00  3.00644345E-02
 -2.34325749E+00  4.05700768E+00 -3.03511095E-02 -4.68272348E+00  6.93334780E-33
  3.00644345E-02 -2.34325749E+00 -4.05700768E+00 -3.00644345E-02  2.34325749E+00
 -4.05700768E+00
Force Field                                I                0
Int Atom Types                             I   N=          12
           0           0           0           0           0           0
           0           0           0           0           0           0
MM charges                                 R   N=          12
  0.00000000E+00  0.00000000E+00  0.00000000E+00  0.00000000E+00  0.00000000E+00
  0.00000000E+00  0.00000000E+00  0.00000000E+00  0.00000000E+00  0.00000000E+00
  0.00000000E+00  0.00000000E+00
Integer atomic weights                     I   N=          12
          12          12          12          12          12          12
           1           1           1           1           1           1
Real atomic weights                        R   N=          12
  1.20000000E+01  1.20000000E+01  1.20000000E+01  1.20000000E+01  1.20000000E+01
  1.20000000E+01  1.00782504E+00  1.00782504E+00  1.00782504E+00  1.00782504E+00
  1.00782504E+00  1.00782504E+00
Atom fragment info                         I   N=          12
           0           0           0           0           0           0
           0           0           0           0           0           0
Atom residue num                           I   N=          12
           0           0           0           0           0           0
           0           0           0           0           0           0
Nuclear spins                              I   N=          12
           0           0           0           0           0           0
           1           1           1           1           1           1
Nuclear ZEff                               R   N=          12
 -3.60000000E+00 -3.60000000E+00 -3.60000000E+00 -3.60000000E+00 -3.60000000E+00
 -3.60000000E+00 -1.00000000E+00 -1.00000000E+00 -1.00000000E+00 -1.00000000E+00
 -1.00000000E+00 -1.00000000E+00
Nuclear QMom                               R   N=          12
  0.00000000E+00  0.00000000E+00  0.00000000E+00  0.00000000E+00  0.00000000E+00
  0.00000000E+00  0.00000000E+00  0.00000000E+00  0.00000000E+00  0.00000000E+00
  0.00000000E+00  0.00000000E+00
Nuclear GFac                               R   N=          12
  0.00000000E+00  0.00000000E+00  0.00000000E+00  0.00000000E+00  0.00000000E+00
  0.00000000E+00  2.79284600E+00  2.79284600E+00  2.79284600E+00  2.79284600E+00
  2.79284600E+00  2.79284600E+00
MicOpt                                     I   N=          12
          -1          -1          -1          -1          -1          -1
          -1          -1          -1          -1          -1          -1
Number of contracted shells                I               66
Number of primitive shells                 I              120
Pure/Cartesian d shells                    I                0
Pure/Cartesian f shells                    I                0
Highest angular momentum                   I                2
Largest degree of contraction              I                6
Shell types                                I   N=          66
           0          -1          -1          -1          -1          -2
           0          -1          -1          -1          -1          -2
           0          -1          -1          -1          -1          -2
           0          -1          -1          -1          -1          -2
           0          -1          -1          -1          -1          -2
           0          -1          -1          -1          -1          -2
           0           0           0           0           1           0
           0           0           0           1           0           0
           0           0           1           0           0           0
           0           1           0           0           0           0
           1           0           0           0           0           1
Number of primitives per shell             I   N=          66
           6           3           1           1           1           1
           6           3           1           1           1           1
           6           3           1           1           1           1
           6           3           1           1           1           1
           6           3           1           1           1           1
           6           3           1           1           1           1
           3           1           1           1           1           3
           1           1           1           1           3           1
           1           1           1           3           1           1
           1           1           3           1           1           1
           1           3           1           1           1           1
Shell to atom map                          I   N=          66
           1           1           1           1           1           1
           2           2           2           2           2           2
           3           3           3           3           3           3
           4           4           4           4           4           4
           5           5           5           5           5           5
           6           6           6           6           6           6
           7           7           7           7           7           8
           8           8           8           8           9           9
           9           9           9          10          10          10
          10          10          11          11          11          11
          11          12          12          12          12          12
Primitive exponents                        R   N=         120
  4.56324000E+03  6.82024000E+02  1.54973000E+02  4.44553000E+01  1.30290000E+01
  1.82773000E+00  2.09642000E+01  4.80331000E+00  1.45933000E+00  4.83456000E-01
  1.45585000E-01  4.38000000E-02  6.26000000E-01  4.56324000E+03  6.82024000E+02
  1.54973000E+02  4.44553000E+01  1.30290000E+01  1.82773000E+00  2.09642000E+01
  4.80331000E+00  1.45933000E+00  4.83456000E-01  1.45585000E-01  4.38000000E-02
  6.26000000E-01  4.56324000E+03  6.82024000E+02  1.54973000E+02  4.44553000E+01
  1.30290000E+01  1.82773000E+00  2.09642000E+01  4.80331000E+00  1.45933000E+00
  4.83456000E-01  1.45585000E-01  4.38000000E-02  6.26000000E-01  4.56324000E+03
  6.82024000E+02  1.54973000E+02  4.44553000E+01  1.30290000E+01  1.82773000E+00
  2.09642000E+01  4.80331000E+00  1.45933000E+00  4.83456000E-01  1.45585000E-01
  4.38000000E-02  6.26000000E-01  4.56324000E+03  6.82024000E+02  1.54973000E+02
  4.44553000E+01  1.30290000E+01  1.82773000E+00  2.09642000E+01  4.80331000E+00
  1.45933000E+00  4.83456000E-01  1.45585000E-01  4.38000000E-02  6.26000000E-01
  4.56324000E+03  6.82024000E+02  1.54973000E+02  4.44553000E+01  1.30290000E+01
  1.82773000E+00  2.09642000E+01  4.80331000E+00  1.45933000E+00  4.83456000E-01
  1.45585000E-01  4.38000000E-02  6.26000000E-01  3.38650000E+01  5.09479000E+00
  1.15879000E+00  3.25840000E-01  1.02741000E-01  3.60000000E-02  7.50000000E-01
  3.38650000E+01  5.09479000E+00  1.15879000E+00  3.25840000E-01  1.02741000E-01
  3.60000000E-02  7.50000000E-01  3.38650000E+01  5.09479000E+00  1.15879000E+00
  3.25840000E-01  1.02741000E-01  3.60000000E-02  7.50000000E-01  3.38650000E+01
  5.09479000E+00  1.15879000E+00  3.25840000E-01  1.02741000E-01  3.60000000E-02
  7.50000000E-01  3.38650000E+01  5.09479000E+00  1.15879000E+00  3.25840000E-01
  1.02741000E-01  3.60000000E-02  7.50000000E-01  3.38650000E+01  5.09479000E+00
  1.15879000E+00  3.25840000E-01  1.02741000E-01  3.60000000E-02  7.50000000E-01
Contraction coefficients                   R   N=         120
  1.96665025E-03  1.52306019E-02  7.61269097E-02  2.60801033E-01  6.16462078E-01
  2.21006028E-01  1.14660081E-01  9.19999648E-01 -3.03068213E-03  1.00000000E+00
  1.00000000E+00  1.00000000E+00  1.00000000E+00  1.96665025E-03  1.52306019E-02
  7.61269097E-02  2.60801033E-01  6.16462078E-01  2.21006028E-01  1.14660081E-01
  9.19999648E-01 -3.03068213E-03  1.00000000E+00  1.00000000E+00  1.00000000E+00
  1.00000000E+00  1.96665025E-03  1.52306019E-02  7.61269097E-02  2.60801033E-01
  6.16462078E-01  2.21006028E-01  1.14660081E-01  9.19999648E-01 -3.03068213E-03
  1.00000000E+00  1.00000000E+00  1.00000000E+00  1.00000000E+00  1.96665025E-03
  1.52306019E-02  7.61269097E-02  2.60801033E-01  6.16462078E-01  2.21006028E-01
  1.14660081E-01  9.19999648E-01 -3.03068213E-03  1.00000000E+00  1.00000000E+00
  1.00000000E+00  1.00000000E+00  1.96665025E-03  1.52306019E-02  7.61269097E-02
  2.60801033E-01  6.16462078E-01  2.21006028E-01  1.14660081E-01  9.19999648E-01
 -3.03068213E-03  1.00000000E+00  1.00000000E+00  1.00000000E+00  1.00000000E+00
  1.96665025E-03  1.52306019E-02  7.61269097E-02  2.60801033E-01  6.16462078E-01
  2.21006028E-01  1.14660081E-01  9.19999648E-01 -3.03068213E-03  1.00000000E+00
  1.00000000E+00  1.00000000E+00  1.00000000E+00  2.54938145E-02  1.90373109E-01
  8.52161486E-01  1.00000000E+00  1.00000000E+00  1.00000000E+00  1.00000000E+00
  2.54938145E-02  1.90373109E-01  8.52161486E-01  1.00000000E+00  1.00000000E+00
  1.00000000E+00  1.00000000E+00  2.54938145E-02  1.90373109E-01  8.52161486E-01
  1.00000000E+00  1.00000000E+00  1.00000000E+00  1.00000000E+00  2.54938145E-02
  1.90373109E-01  8.52161486E-01  1.00000000E+00  1.00000000E+00  1.00000000E+00
  1.00000000E+00  2.54938145E-02  1.90373109E-01  8.52161486E-01  1.00000000E+00
  1.00000000E+00  1.00000000E+00  1.00000000E+00  2.54938145E-02  1.90373109E-01
  8.52161486E-01  1.00000000E+00  1.00000000E+00  1.00000000E+00  1.00000000E+00
P(S=P) Contraction coefficients            R   N=         120
  0.00000000E+00  0.00000000E+00  0.00000000E+00  0.00000000E+00  0.00000000E+00
  0.00000000E+00  4.02486927E-02  2.37593957E-01  8.15853851E-01  1.00000000E+00
  1.00000000E+00  1.00000000E+00  0.00000000E+00  0.00000000E+00  0.00000000E+00
  0.00000000E+00  0.00000000E+00  0.00000000E+00  0.00000000E+00  4.02486927E-02
  2.37593957E-01  8.15853851E-01  1.00000000E+00  1.00000000E+00  1.00000000E+00
  0.00000000E+00  0.00000000E+00  0.00000000E+00  0.00000000E+00  0.00000000E+00
  0.00000000E+00  0.00000000E+00  4.02486927E-02  2.37593957E-01  8.15853851E-01
  1.00000000E+00  1.00000000E+00  1.00000000E+00  0.00000000E+00  0.00000000E+00
  0.00000000E+00  0.00000000E+00  0.00000000E+00  0.00000000E+00  0.00000000E+00
  4.02486927E-02  2.37593957E-01  8.15853851E-01  1.00000000E+00  1.00000000E+00
  1.00000000E+00  0.00000000E+00  0.00000000E+00  0.00000000E+00  0.00000000E+00
  0.00000000E+00  0.00000000E+00  0.00000000E+00  4.02486927E-02  2.37593957E-01
  8.15853851E-01  1.00000000E+00  1.00000000E+00  1.00000000E+00  0.00000000E+00
  0.00000000E+00  0.00000000E+00  0.00000000E+00  0.00000000E+00  0.00000000E+00
  0.00000000E+00  4.02486927E-02  2.37593957E-01  8.15853851E-01  1.00000000E+00
  1.00000000E+00  1.00000000E+00  0.00000000E+00  0.00000000E+00  0.00000000E+00
  0.00000000E+00  0.00000000E+00  0.00000000E+00  0.00000000E+00  0.00000000E+00
  0.00000000E+00  0.00000000E+00  0.00000000E+00  0.00000000E+00  0.00000000E+00
  0.00000000E+00  0.00000000E+00  0.00000000E+00  0.00000000E+00  0.00000000E+00
  0.00000000E+00  0.00000000E+00  0.00000000E+00  0.00000000E+00  0.00000000E+00
  0.00000000E+00  0.00000000E+00  0.00000000E+00  0.00000000E+00  0.00000000E+00
  0.00000000E+00  0.00000000E+00  0.00000000E+00  0.00000000E+00  0.00000000E+00
  0.00000000E+00  0.00000000E+00  0.00000000E+00  0.00000000E+00  0.00000000E+00
  0.00000000E+00  0.00000000E+00  0.00000000E+00  0.00000000E+00  0.00000000E+00
Coordinates of each shell                  R   N=         198
  3.83122902E-02  2.63326802E+00 -1.62758916E-31  3.83122902E-02  2.63326802E+00
 -1.62758916E-31  3.83122902E-02  2.63326802E+00 -1.62758916E-31  3.83122902E-02
  2.63326802E+00 -1.62758916E-31  3.83122902E-02  2.63326802E+00 -1.62758916E-31
  3.83122902E-02  2.63326802E+00 -1.62758916E-31 -3.83122902E-02  1.31754273E+00
  2.28284208E+00 -3.83122902E-02  1.31754273E+00  2.28284208E+00 -3.83122902E-02
  1.31754273E+00  2.28284208E+00 -3.83122902E-02  1.31754273E+00  2.28284208E+00
 -3.83122902E-02  1.31754273E+00  2.28284208E+00 -3.83122902E-02  1.31754273E+00
  2.28284208E+00  3.83122902E-02 -1.31754273E+00  2.28284208E+00  3.83122902E-02
 -1.31754273E+00  2.28284208E+00  3.83122902E-02 -1.31754273E+00  2.28284208E+00
  3.83122902E-02 -1.31754273E+00  2.28284208E+00  3.83122902E-02 -1.31754273E+00
  2.28284208E+00  3.83122902E-02 -1.31754273E+00  2.28284208E+00 -3.83122902E-02
 -2.63326802E+00 -6.15007277E-32 -3.83122902E-02 -2.63326802E+00 -6.15007277E-32
 -3.83122902E-02 -2.63326802E+00 -6.15007277E-32 -3.83122902E-02 -2.63326802E+00
 -6.15007277E-32 -3.83122902E-02 -2.63326802E+00 -6.15007277E-32 -3.83122902E-02
 -2.63326802E+00 -6.15007277E-32  3.83122902E-02 -1.31754273E+00 -2.28284208E+00
  3.83122902E-02 -1.31754273E+00 -2.28284208E+00  3.83122902E-02 -1.31754273E+00
 -2.28284208E+00  3.83122902E-02 -1.31754273E+00 -2.28284208E+00  3.83122902E-02
 -1.31754273E+00 -2.28284208E+00  3.83122902E-02 -1.31754273E+00 -2.28284208E+00
 -3.83122902E-02  1.31754273E+00 -2.28284208E+00 -3.83122902E-02  1.31754273E+00
 -2.28284208E+00 -3.83122902E-02  1.31754273E+00 -2.28284208E+00 -3.83122902E-02
  1.31754273E+00 -2.28284208E+00 -3.83122902E-02  1.31754273E+00 -2.28284208E+00
 -3.83122902E-02  1.31754273E+00 -2.28284208E+00  3.03511095E-02  4.68272348E+00
 -2.88967461E-31  3.03511095E-02  4.68272348E+00 -2.88967461E-31  3.03511095E-02
  4.68272348E+00 -2.88967461E-31  3.03511095E-02  4.68272348E+00 -2.88967461E-31
  3.03511095E-02  4.68272348E+00 -2.88967461E-31 -3.00644345E-02  2.34325749E+00
  4.05700768E+00 -3.00644345E-02  2.34325749E+00  4.05700768E+00 -3.00644345E-02
  2.34325749E+00  4.05700768E+00 -3.00644345E-02  2.34325749E+00  4.05700768E+00
 -3.00644345E-02  2.34325749E+00  4.05700768E+00  3.00644345E-02 -2.34325749E+00
  4.05700768E+00  3.00644345E-02 -2.34325749E+00  4.05700768E+00  3.00644345E-02
 -2.34325749E+00  4.05700768E+00  3.00644345E-02 -2.34325749E+00  4.05700768E+00
  3.00644345E-02 -2.34325749E+00  4.05700768E+00 -3.03511095E-02 -4.68272348E+00
 -1.09366346E-31 -3.03511095E-02 -4.68272348E+00 -1.09366346E-31 -3.03511095E-02
 -4.68272348E+00 -1.09366346E-31 -3.03511095E-02 -4.68272348E+00 -1.09366346E-31
 -3.03511095E-02 -4.68272348E+00 -1.09366346E-31  3.00644345E-02 -2.34325749E+00
 -4.05700768E+00  3.00644345E-02 -2.34325749E+00 -4.05700768E+00  3.00644345E-02
 -2.34325749E+00 -4.05700768E+00  3.00644345E-02 -2.34325749E+00 -4.05700768E+00
  3.00644345E-02 -2.34325749E+00 -4.05700768E+00 -3.00644345E-02  2.34325749E+00
 -4.05700768E+00 -3.00644345E-02  2.34325749E+00 -4.05700768E+00 -3.00644345E-02
  2.34325749E+00 -4.05700768E+00 -3.00644345E-02  2.34325749E+00 -4.05700768E+00
 -3.00644345E-02  2.34325749E+00 -4.05700768E+00
Constraint Structure                       R   N=          36
  3.83122902E-02  2.63326802E+00 -1.62758916E-31 -3.83122902E-02  1.31754273E+00
  2.28284208E+00  3.83122902E-02 -1.31754273E+00  2.28284208E+00 -3.83122902E-02
 -2.63326802E+00 -6.15007277E-32  3.83122902E-02 -1.31754273E+00 -2.28284208E+00
 -3.83122902E-02  1.31754273E+00 -2.28284208E+00  3.03511095E-02  4.68272348E+00
 -2.88967461E-31 -3.00644345E-02  2.34325749E+00  4.05700768E+00  3.00644345E-02
 -2.34325749E+00  4.05700768E+00 -3.03511095E-02 -4.68272348E+00 -1.09366346E-31
  3.00644345E-02 -2.34325749E+00 -4.05700768E+00 -3.00644345E-02  2.34325749E+00
 -4.05700768E+00
Num ILSW                                   I              100
ILSW                                       I   N=         100
           0           0           0           0           2           0
           0           0           0           0           0          -1
           0           0           0           0           0           0
           0           0           0           0           0           0
           1           0           0           0           0           0
           0           0      100000           0          -1           0
           0           0           0           0           0           0
           0           0           0           1           0           0
           0           0           1           0           0           0
           0           0           4          40           0           0
           0           0           0           0           0           0
           0           0           0           0           0           0
           0           0           0           0           0           0
           0           0           0           0           0           0
           0           0           0           0           0           0
           0           0           0           0           0           0
           0           0           0           0
Num RLSW                                   I               40
RLSW                                       R   N=          40
  1.00000000E+00  1.00000000E+00  1.00000000E+00  1.00000000E+00  1.00000000E+00
  0.00000000E+00  0.00000000E+00  1.00000000E+00  0.00000000E+00  0.00000000E+00
  0.00000000E+00  0.00000000E+00  1.00000000E+00  0.00000000E+00  0.00000000E+00
  0.00000000E+00  0.00000000E+00  1.00000000E+00  0.00000000E+00  0.00000000E+00
  0.00000000E+00  0.00000000E+00  1.00000000E+00  0.00000000E+00  0.00000000E+00
  0.00000000E+00  0.00000000E+00  1.00000000E+00  0.00000000E+00  0.00000000E+00
  0.00000000E+00  0.00000000E+00  0.00000000E+00  0.00000000E+00  0.00000000E+00
  0.00000000E+00  0.00000000E+00  0.00000000E+00  1.00000000E+00  1.00000000E+00
MxBond                                     I                3
NBond                                      I   N=          12
           3           3           3           3           3           3
           1           1           1           1           1           1
IBond                                      I   N=          36
           2           6           7           1           3           8
           2           4           9           3           5          10
           4           6          11           1           5          12
           1           0           0           2           0           0
           3           0           0           4           0           0
           5           0           0           6           0           0
RBond                                      R   N=          36
  1.50000000E+00  1.50000000E+00  1.00000000E+00  1.50000000E+00  1.50000000E+00
  1.00000000E+00  1.50000000E+00  1.50000000E+00  1.00000000E+00  1.50000000E+00
  1.50000000E+00  1.00000000E+00  1.50000000E+00  1.50000000E+00  1.00000000E+00
  1.50000000E+00  1.50000000E+00  1.00000000E+00  1.00000000E+00  0.00000000E+00
  0.00000000E+00  1.00000000E+00  0.00000000E+00  0.00000000E+00  1.00000000E+00
  0.00000000E+00  0.00000000E+00  1.00000000E+00  0.00000000E+00  0.00000000E+00
  1.00000000E+00  0.00000000E+00  0.00000000E+00  1.00000000E+00  0.00000000E+00
  0.00000000E+00
Virial Ratio                               R      2.001294913332735E+00
SCF Energy                                 R     -2.307547445335182E+02
MP2 Energy                                 R     -2.315839972303064E+02
Total Energy                               R     -2.315839972303064E+02
Post-SCF wavefunction norm                 R      1.143769952037021E+00
RMS Density                                R      6.014965839983143E-09
External E-field                           R   N=          35
  0.00000000E+00  0.00000000E+00  0.00000000E+00  0.00000000E+00  0.00000000E+00
  0.00000000E+00  0.00000000E+00  0.00000000E+00  0.00000000E+00  0.00000000E+00
  0.00000000E+00  0.00000000E+00  0.00000000E+00  0.00000000E+00  0.00000000E+00
  0.00000000E+00  0.00000000E+00  0.00000000E+00  0.00000000E+00  0.00000000E+00
  0.00000000E+00  0.00000000E+00  0.00000000E+00  0.00000000E+00  0.00000000E+00
  0.00000000E+00  0.00000000E+00  0.00000000E+00  0.00000000E+00  0.00000000E+00
  0.00000000E+00  0.00000000E+00  0.00000000E+00  0.00000000E+00  0.00000000E+00
IOpCl                                      I                0
IROHF                                      I                0
Alpha Orbital Energies                     R   N=         174
 -1.12391989E+01 -1.12386520E+01 -1.12386065E+01 -1.12374238E+01 -1.12373762E+01
 -1.12367974E+01 -1.15222679E+00 -1.01640819E+00 -1.01627709E+00 -8.25196090E-01
 -8.25018537E-01 -7.10602643E-01 -6.44474072E-01 -6.20376843E-01 -5.89580747E-01
 -5.89233788E-01 -5.01993856E-01 -4.96216709E-01 -4.95843004E-01 -3.36935329E-01
 -3.36865133E-01  4.21093225E-02  4.89740719E-02  4.89839422E-02  6.63092502E-02
  6.63219572E-02  9.35576725E-02  1.08850483E-01  1.08967195E-01  1.19442306E-01
  1.52373381E-01  1.52392544E-01  1.54859649E-01  1.62849869E-01  1.81220497E-01
  1.81256682E-01  1.83538381E-01  1.83540722E-01  1.92228238E-01  2.12318106E-01
  2.12342832E-01  2.12910452E-01  2.15787396E-01  2.15977998E-01  2.16041745E-01
  2.28381933E-01  2.28419959E-01  2.50128085E-01  2.50131462E-01  2.73161812E-01
  2.78245968E-01  2.88989959E-01  2.89019626E-01  3.34071093E-01  3.66001630E-01
  4.07459382E-01  4.08200196E-01  4.08264846E-01  4.29428140E-01  4.29429508E-01
  4.97874871E-01  4.97893574E-01  5.08753968E-01  5.08919534E-01  6.04150097E-01
  6.09653386E-01  6.87686436E-01  7.24182205E-01  7.24208062E-01  7.25196818E-01
  7.39394536E-01  7.49489406E-01  7.49600557E-01  7.58482210E-01  7.58506924E-01
  7.99239836E-01  8.19054524E-01  8.19098307E-01  8.28207499E-01  8.85298561E-01
  9.39245005E-01  9.39446590E-01  9.50397344E-01  9.50691209E-01  9.75262246E-01
  1.01494595E+00  1.01497550E+00  1.05641967E+00  1.05642460E+00  1.08898450E+00
  1.11744140E+00  1.12035571E+00  1.12045503E+00  1.17086257E+00  1.21401059E+00
  1.21427481E+00  1.25972692E+00  1.32723575E+00  1.32761892E+00  1.39105051E+00
  1.39131523E+00  1.52819345E+00  1.55533979E+00  1.71129321E+00  1.78498475E+00
  1.78577482E+00  1.79628046E+00  1.82538278E+00  1.84370766E+00  1.84384063E+00
  1.90658692E+00  1.90698393E+00  1.93249615E+00  1.93306335E+00  1.99743149E+00
  2.05361376E+00  2.05383560E+00  2.10272541E+00  2.10322429E+00  2.12829879E+00
  2.21553577E+00  2.23100463E+00  2.23177420E+00  2.25040450E+00  2.25085780E+00
  2.29371894E+00  2.34923847E+00  2.34925671E+00  2.37572658E+00  2.37598181E+00
  2.63315763E+00  2.65587056E+00  2.74271163E+00  2.74290288E+00  2.74737573E+00
  2.81440135E+00  2.81480277E+00  2.87532656E+00  2.95823842E+00  2.95896477E+00
  2.98966316E+00  3.02286283E+00  3.02297517E+00  3.02634051E+00  3.04508325E+00
  3.04513386E+00  3.07749317E+00  3.19096416E+00  3.19116132E+00  3.24928502E+00
  3.29453167E+00  3.29465072E+00  3.32590741E+00  3.32631307E+00  3.47970326E+00
  3.54626173E+00  3.77370313E+00  3.77378500E+00  3.90372445E+00  3.90375208E+00
  3.91945370E+00  4.04981685E+00  4.40548925E+00  4.40580593E+00  4.47987916E+00
  4.57534576E+00  4.57581085E+00  5.25117018E+00  2.47474534E+01  2.51332912E+01
  2.51334826E+01  2.52560816E+01  2.52564587E+01  2.53442381E+01
Alpha MO coefficients                      R   N=       30276
  2.24019494E-01  1.85482702E-01 -9.87862258E-06 -3.29775939E-05  0.00000000E+00
  1.98509142E-03 -1.03242453E-05 -1.83509502E-04  0.00000000E+00 -3.88017734E-04
  4.59362132E-05  1.10422147E-05  0.00000000E+00 -1.68807528E-04 -1.96655478E-04
 -1.67170058E-04  0.00000000E+00  1.11448131E-04  0.00000000E+00  0.00000000E+00
 -6.40312755E-05  1.47253554E-06  2.32797931E-01  1.92754213E-01  1.01961052E-05
 -1.71185230E-05 -2.40128602E-05  2.04676367E-03  1.04881170E-05 -9.47407444E-05
 -1.60053871E-04 -3.97604269E-04 -4.58977376E-05  8.43179715E-06  1.35280780E-05
 -6.20440739E-05  1.97074938E-04 -1.04518971E-04 -1.84017494E-04  3.08029843E-05
 -1.43153210E-06 -5.57269289E-05 -1.19509842E-04 -7.38158853E-07  2.32797931E-01
  1.92754213E-01 -1.01961052E-05  1.71185230E-05 -2.40128602E-05  2.04676367E-03
 -1.04881170E-05  9.47407444E-05 -1.60053871E-04 -3.97604269E-04  4.58977376E-05
 -8.43179715E-06  1.35280780E-05 -6.20440739E-05 -1.97074938E-04  1.04518971E-04
 -1.84017494E-04  3.08029843E-05  1.43153210E-06  5.57269289E-05 -1.19509842E-04
 -7.38158853E-07  2.24019494E-01  1.85482702E-01  9.87862258E-06  3.29775939E-05
  0.00000000E+00  1.98509142E-03  1.03242453E-05  1.83509502E-04  0.00000000E+00
 -3.88017734E-04 -4.59362132E-05 -1.10422147E-05  0.00000000E+00 -1.68807528E-04
  1.96655478E-04  1.67170058E-04  0.00000000E+00  1.11448131E-04  0.00000000E+00
  0.00000000E+00 -6.40312755E-05  1.47253554E-06  2.32797931E-01  1.92754213E-01
 -1.01961052E-05  1.71185230E-05  2.40128602E-05  2.04676367E-03 -1.04881170E-05
  9.47407444E-05  1.60053871E-04 -3.97604269E-04  4.58977376E-05 -8.43179715E-06
 -1.35280780E-05 -6.20440739E-05 -1.97074938E-04  1.04518971E-04  1.84017494E-04
  3.08029843E-05 -1.43153210E-06 -5.57269289E-05 -1.19509842E-04 -7.38158853E-07
  2.32797931E-01  1.92754213E-01  1.01961052E-05 -1.71185230E-05  2.40128602E-05
  2.04676367E-03  1.04881170E-05 -9.47407444E-05  1.60053871E-04 -3.97604269E-04
 -4.58977376E-05  8.43179715E-06 -1.35280780E-05 -6.20440739E-05  1.97074938E-04
 -1.04518971E-04  1.84017494E-04  3.08029843E-05  1.43153210E-06  5.57269289E-05
 -1.19509842E-04 -7.38158853E-07  1.72783242E-04 -1.06143449E-05  2.34562613E-04
  8.15762311E-05 -2.82495967E-06 -3.21056197E-05  0.00000000E+00  1.79206990E-04
 -1.46132461E-05  2.41985678E-04  9.84283895E-05  2.84990883E-06 -1.61308618E-05
 -2.74182481E-05  1.79206990E-04 -1.46132461E-05  2.41985678E-04  9.84283895E-05
 -2.84990883E-06  1.61308618E-05 -2.74182481E-05  1.72783242E-04 -1.06143449E-05
  2.34562613E-04  8.15762311E-05  2.82495967E-06  3.21056197E-05  0.00000000E+00
  1.79206990E-04 -1.46132461E-05  2.41985678E-04  9.84283895E-05 -2.84990883E-06
  1.61308618E-05  2.74182481E-05  1.79206990E-04 -1.46132461E-05  2.41985678E-04
  9.84283895E-05  2.84990883E-06 -1.61308618E-05  2.74182481E-05  0.00000000E+00
  0.00000000E+00  0.00000000E+00  0.00000000E+00  1.85861679E-04  0.00000000E+00
  0.00000000E+00  0.00000000E+00  1.47980218E-04  0.00000000E+00  0.00000000E+00
  0.00000000E+00 -2.17528448E-04  0.00000000E+00  0.00000000E+00  0.00000000E+00
  1.11784658E-03  0.00000000E+00  2.90444181E-06 -1.06405391E-04  0.00000000E+00
  0.00000000E+00  2.81618088E-01  2.33211458E-01  1.39324169E-05 -8.25741746E-05
  4.23027168E-05  2.30528095E-03  1.68586853E-06 -1.24794781E-04 -6.81585690E-05
 -2.98141194E-04  5.07266000E-06  8.66601174E-05 -6.71379518E-05 -1.21873118E-03
 -4.38865741E-05 -9.93272171E-04 -6.02702105E-04  1.18434482E-05 -3.07710119E-06
 -3.82875764E-05 -1.87495702E-04 -9.16051338E-08  2.81618088E-01  2.33211458E-01
 -1.39324169E-05  8.25741746E-05  4.23027168E-05  2.30528095E-03 -1.68586853E-06
  1.24794781E-04 -6.81585690E-05 -2.98141194E-04 -5.07266000E-06 -8.66601174E-05
 -6.71379518E-05 -1.21873118E-03  4.38865741E-05  9.93272171E-04 -6.02702105E-04
  1.18434482E-05  3.07710119E-06  3.82875764E-05 -1.87495702E-04 -9.16051338E-08
  0.00000000E+00  0.00000000E+00  0.00000000E+00  0.00000000E+00  1.85861679E-04
  0.00000000E+00  0.00000000E+00  0.00000000E+00  1.47980218E-04  0.00000000E+00
  0.00000000E+00  0.00000000E+00 -2.17528448E-04  0.00000000E+00  0.00000000E+00
  0.00000000E+00  1.11784658E-03  0.00000000E+00 -2.90444181E-06  1.06405391E-04
  0.00000000E+00  0.00000000E+00 -2.81618088E-01 -2.33211458E-01  1.39324169E-05
 -8.25741746E-05  4.23027168E-05 -2.30528095E-03  1.68586853E-06 -1.24794781E-04
 -6.81585690E-05  2.98141194E-04  5.07266000E-06  8.66601174E-05 -6.71379518E-05
  1.21873118E-03 -4.38865741E-05 -9.93272171E-04 -6.02702105E-04 -1.18434482E-05
  3.07710119E-06  3.82875764E-05  1.87495702E-04  9.16051338E-08 -2.81618088E-01
 -2.33211458E-01 -1.39324169E-05  8.25741746E-05  4.23027168E-05 -2.30528095E-03
 -1.68586853E-06  1.24794781E-04 -6.81585690E-05  2.98141194E-04 -5.07266000E-06