 Entering Gaussian System, Link 0=g09
 Initial command:
 /apps/software//g09/l1.exe /scratch/itamar/2424.cluster.abaxnet/Gau-9639.inp -scrdir=/scratch/itamar/2424.cluster.abaxnet/
 Entering Link 1 = /apps/software//g09/l1.exe PID=      9640.
  
 Copyright (c) 1988,1990,1992,1993,1995,1998,2003,2009, Gaussian, Inc.
                  All Rights Reserved.
  
 This is part of the Gaussian(R) 09 program.  It is based on
 the Gaussian(R) 03 system (copyright 2003, Gaussian, Inc.),
 the Gaussian(R) 98 system (copyright 1998, Gaussian, Inc.),
 the Gaussian(R) 94 system (copyright 1995, Gaussian, Inc.),
 the Gaussian 92(TM) system (copyright 1992, Gaussian, Inc.),
 the Gaussian 90(TM) system (copyright 1990, Gaussian, Inc.),
 the Gaussian 88(TM) system (copyright 1988, Gaussian, Inc.),
 the Gaussian 86(TM) system (copyright 1986, Carnegie Mellon
 University), and the Gaussian 82(TM) system (copyright 1983,
 Carnegie Mellon University). Gaussian is a federally registered
 trademark of Gaussian, Inc.
  
 This software contains proprietary and confidential information,
 including trade secrets, belonging to Gaussian, Inc.
  
 This software is provided under written license and may be
 used, copied, transmitted, or stored only in accord with that
 written license.
  
 The following legend is applicable only to US Government
 contracts under FAR:
  
                    RESTRICTED RIGHTS LEGEND
  
 Use, reproduction and disclosure by the US Government is
 subject to restrictions as set forth in subparagraphs (a)
 and (c) of the Commercial Computer Software - Restricted
 Rights clause in FAR 52.227-19.
  
 Gaussian, Inc.
 340 Quinnipiac St., Bldg. 40, Wallingford CT 06492
  
  
 ---------------------------------------------------------------
 Warning -- This program may not be used in any manner that
 competes with the business of Gaussian, Inc. or will provide
 assistance to any competitor of Gaussian, Inc.  The licensee
 of this program is prohibited from giving any competitor of
 Gaussian, Inc. access to this program.  By using this program,
 the user acknowledges that Gaussian, Inc. is engaged in the
 business of creating and licensing software in the field of
 computational chemistry and represents and warrants to the
 licensee that it is not a competitor of Gaussian, Inc. and that
 it will not use this program in any manner prohibited above.
 ---------------------------------------------------------------
  

 Cite this work as:
 Gaussian 09, Revision A.02,
 M. J. Frisch, G. W. Trucks, H. B. Schlegel, G. E. Scuseria, 
 M. A. Robb, J. R. Cheeseman, G. Scalmani, V. Barone, B. Mennucci, 
 G. A. Petersson, H. Nakatsuji, M. Caricato, X. Li, H. P. Hratchian, 
 A. F. Izmaylov, J. Bloino, G. Zheng, J. L. Sonnenberg, M. Hada, 
 M. Ehara, K. Toyota, R. Fukuda, J. Hasegawa, M. Ishida, T. Nakajima, 
 Y. Honda, O. Kitao, H. Nakai, T. Vreven, J. A. Montgomery, Jr., 
 J. E. Peralta, F. Ogliaro, M. Bearpark, J. J. Heyd, E. Brothers, 
 K. N. Kudin, V. N. Staroverov, R. Kobayashi, J. Normand, 
 K. Raghavachari, A. Rendell, J. C. Burant, S. S. Iyengar, J. Tomasi, 
 M. Cossi, N. Rega, J. M. Millam, M. Klene, J. E. Knox, J. B. Cross, 
 V. Bakken, C. Adamo, J. Jaramillo, R. Gomperts, R. E. Stratmann, 
 O. Yazyev, A. J. Austin, R. Cammi, C. Pomelli, J. W. Ochterski, 
 R. L. Martin, K. Morokuma, V. G. Zakrzewski, G. A. Voth, 
 P. Salvador, J. J. Dannenberg, S. Dapprich, A. D. Daniels, 
 O. Farkas, J. B. Foresman, J. V. Ortiz, J. Cioslowski, 
 and D. J. Fox, Gaussian, Inc., Wallingford CT, 2009.
 
 ******************************************
 Gaussian 09:  EM64L-G09RevA.02 11-Jun-2009
                 3-Dec-2021 
 ******************************************
 %Mem=3800MB
 %NProcShared=6
 Will use up to    6 processors via shared memory.
 %chk=/home/itamar/Aromaticity-test-set/T4-Chair-Like/10/chair-10.chk
 -----------------------------
 #P MP2/6-311++G** DENSITY=MP2
 -----------------------------
 1/30=1,38=1/1;
 2/12=2,17=6,18=5,40=1/2;
 3/5=4,6=6,7=1111,11=9,16=1,25=1,30=1,71=1/1,2,3;
 4//1;
 5/5=2,38=5/2;
 8/6=4,10=2/1;
 9/15=1,16=-3/6;
 10/5=1,13=10/2;
 6/7=2,8=2,9=2,10=2,22=2/1;
 99/5=1,9=1/99;
 Leave Link    1 at Fri Dec  3 15:06:30 2021, MaxMem=  498073600 cpu:       0.1
 (Enter /apps/software//g09/l101.exe)
 --------
 Chair-10
 --------
 Symbolic Z-matrix:
 Charge =  0 Multiplicity = 1
 6                     0.        1.38975  -0.04035 
 6                     1.20875   0.69687   0.0406 
 6                     1.20875  -0.69687  -0.0406 
 6                     0.       -1.38975   0.04035 
 6                    -1.20875  -0.69687  -0.0406 
 6                    -1.20875   0.69687   0.0406 
 1                     0.        2.47459  -0.03233 
 1                     2.14667   1.24144   0.03211 
 1                     2.14667  -1.24144  -0.03211 
 1                     0.       -2.47459   0.03233 
 1                    -2.14667  -1.24144  -0.03211 
 1                    -2.14667   1.24144   0.03211 
 
 NAtoms=     12 NQM=     12 NQMF=      0 NMic=      0 NMicF=      0 NTot=     12.
                    Isotopes and Nuclear Properties:
 (Nuclear quadrupole moments (NQMom) in fm**2, nuclear magnetic moments (NMagM)
  in nuclear magnetons)

  Atom         1           2           3           4           5           6           7           8           9          10
 IAtWgt=          12          12          12          12          12          12           1           1           1           1
 AtmWgt=  12.0000000  12.0000000  12.0000000  12.0000000  12.0000000  12.0000000   1.0078250   1.0078250   1.0078250   1.0078250
 NucSpn=           0           0           0           0           0           0           1           1           1           1
 AtZEff=   0.0000000   0.0000000   0.0000000   0.0000000   0.0000000   0.0000000   0.0000000   0.0000000   0.0000000   0.0000000
 NQMom=    0.0000000   0.0000000   0.0000000   0.0000000   0.0000000   0.0000000   0.0000000   0.0000000   0.0000000   0.0000000
 NMagM=    0.0000000   0.0000000   0.0000000   0.0000000   0.0000000   0.0000000   2.7928460   2.7928460   2.7928460   2.7928460

  Atom        11          12
 IAtWgt=           1           1
 AtmWgt=   1.0078250   1.0078250
 NucSpn=           1           1
 AtZEff=   0.0000000   0.0000000
 NQMom=    0.0000000   0.0000000
 NMagM=    2.7928460   2.7928460
 Leave Link  101 at Fri Dec  3 15:06:30 2021, MaxMem=  498073600 cpu:       0.1
 (Enter /apps/software//g09/l202.exe)
                          Input orientation:                          
 ---------------------------------------------------------------------
 Center     Atomic      Atomic             Coordinates (Angstroms)
 Number     Number       Type             X           Y           Z
 ---------------------------------------------------------------------
      1          6           0        0.000000    1.389745   -0.040348
      2          6           0        1.208747    0.696873    0.040604
      3          6           0        1.208747   -0.696873   -0.040604
      4          6           0        0.000000   -1.389745    0.040348
      5          6           0       -1.208747   -0.696873   -0.040604
      6          6           0       -1.208747    0.696873    0.040604
      7          1           0        0.000000    2.474587   -0.032332
      8          1           0        2.146672    1.241444    0.032108
      9          1           0        2.146672   -1.241444   -0.032108
     10          1           0        0.000000   -2.474587    0.032332
     11          1           0       -2.146672   -1.241444   -0.032108
     12          1           0       -2.146672    1.241444    0.032108
 ---------------------------------------------------------------------
                    Distance matrix (angstroms):
                    1          2          3          4          5
     1  C    0.000000
     2  C    1.395598   0.000000
     3  C    2.411440   1.396110   0.000000
     4  C    2.780661   2.411440   1.395598   0.000000
     5  C    2.411440   2.791666   2.417494   1.395598   0.000000
     6  C    1.395598   2.417494   2.791666   2.411440   1.396110
     7  H    1.084872   2.150966   3.394009   3.865015   3.394009
     8  H    2.153008   1.084589   2.154545   3.395795   3.875719
     9  H    3.395795   2.154545   1.084589   2.153008   3.399333
    10  H    3.865015   3.394009   2.150966   1.084872   2.150966
    11  H    3.395795   3.875719   3.399333   2.153008   1.084589
    12  H    2.153008   3.399333   3.875719   3.395795   2.154545
                    6          7          8          9         10
     6  C    0.000000
     7  H    2.150966   0.000000
     8  H    3.399333   2.476488   0.000000
     9  H    3.875719   4.291513   2.483718   0.000000
    10  H    3.394009   4.949596   4.291513   2.476488   0.000000
    11  H    2.154545   4.291513   4.960006   4.293344   2.476488
    12  H    1.084589   2.476488   4.293344   4.960006   4.291513
                   11         12
    11  H    0.000000
    12  H    2.483718   0.000000
 Stoichiometry    C6H6
 Framework group  C2H[SGH(C2H2),X(C4H4)]
 Deg. of freedom     9
 Full point group                 C2H     NOp   4
 Largest Abelian subgroup         C2H     NOp   4
 Largest concise Abelian subgroup C2H     NOp   4
                         Standard orientation:                         
 ---------------------------------------------------------------------
 Center     Atomic      Atomic             Coordinates (Angstroms)
 Number     Number       Type             X           Y           Z
 ---------------------------------------------------------------------
      1          6           0        0.040519    1.389740    0.000000
      2          6           0       -0.040519    0.696878    1.208747
      3          6           0        0.040519   -0.696878    1.208747
      4          6           0       -0.040519   -1.389740    0.000000
      5          6           0        0.040519   -0.696878   -1.208747
      6          6           0       -0.040519    0.696878   -1.208747
      7          1           0        0.032636    2.474583    0.000000
      8          1           0       -0.031956    1.241448    2.146672
      9          1           0        0.031956   -1.241448    2.146672
     10          1           0       -0.032636   -2.474583    0.000000
     11          1           0        0.031956   -1.241448   -2.146672
     12          1           0       -0.031956    1.241448   -2.146672
 ---------------------------------------------------------------------
 Rotational constants (GHZ):      5.7205705      5.6891013      2.8564096
 Leave Link  202 at Fri Dec  3 15:06:30 2021, MaxMem=  498073600 cpu:       0.0
 (Enter /apps/software//g09/l301.exe)
 Standard basis: 6-311++G(d,p) (5D, 7F)
 Ernie: Thresh=  0.10000D-02 Tol=  0.10000D-05 Strict=F.
 There are    51 symmetry adapted basis functions of AG  symmetry.
 There are    36 symmetry adapted basis functions of BG  symmetry.
 There are    36 symmetry adapted basis functions of AU  symmetry.
 There are    51 symmetry adapted basis functions of BU  symmetry.
 Integral buffers will be    131072 words long.
 Raffenetti 1 integral format.
 Two-electron integral symmetry is turned on.
   174 basis functions,   270 primitive gaussians,   180 cartesian basis functions
    21 alpha electrons       21 beta electrons
       nuclear repulsion energy       203.4912726966 Hartrees.
 IExCor=    0 DFT=F Ex=HF Corr=None ExCW=0 ScaHFX=  1.000000
 ScaDFX=  1.000000  1.000000  1.000000  1.000000 ScalE2=  1.000000  1.000000
 IRadAn=      0 IRanWt=     -1 IRanGd=            0 ICorTp=0
 NAtoms=   12 NActive=   12 NUniq=    4 SFac= 3.00D+00 NAtFMM=   80 NAOKFM=F Big=F
 Leave Link  301 at Fri Dec  3 15:06:30 2021, MaxMem=  498073600 cpu:       0.1
 (Enter /apps/software//g09/l302.exe)
 NPDir=0 NMtPBC=     1 NCelOv=     1 NCel=       1 NClECP=     1 NCelD=      1
         NCelK=      1 NCelE2=     1 NClLst=     1 CellRange=     0.0.
 One-electron integrals computed using PRISM.
 One-electron integral symmetry used in STVInt
 NBasis=   174 RedAO= T  NBF=    51    36    36    51
 NBsUse=   174 1.00D-06 NBFU=    51    36    36    51
 Leave Link  302 at Fri Dec  3 15:06:31 2021, MaxMem=  498073600 cpu:       0.3
 (Enter /apps/software//g09/l303.exe)
 DipDrv:  MaxL=1.
 Leave Link  303 at Fri Dec  3 15:06:31 2021, MaxMem=  498073600 cpu:       0.1
 (Enter /apps/software//g09/l401.exe)
 Harris functional with IExCor=  205 diagonalized for initial guess.
 ExpMin= 3.60D-02 ExpMax= 4.56D+03 ExpMxC= 6.82D+02 IAcc=3 IRadAn=         0 AccDes= 0.00D+00
 HarFok:  IExCor=  205 AccDes= 0.00D+00 IRadAn=         0 IDoV= 1
 ScaDFX=  1.000000  1.000000  1.000000  1.000000
 FoFCou: FMM=F IPFlag=           0 FMFlag=      100000 FMFlg1=           0
         NFxFlg=           0 DoJE=T BraDBF=F KetDBF=T FulRan=T
         Omega=  0.000000  0.000000  1.000000  0.000000  0.000000 ICntrl=     500 IOpCl=  0
         NMat0=    1 NMatS0=    1 NMatT0=    0 NMatD0=    1 NMtDS0=    0 NMtDT0=    0
         I1Cent=           4 NGrid=           0.
 Petite list used in FoFCou.
 Harris En= -231.146385066641    
 Initial guess orbital symmetries:
       Occupied  (AG) (BU) (AU) (AG) (BG) (BU) (AG) (AU) (BU) (BG)
                 (AG) (AG) (AU) (BU) (AU) (BU) (BU) (BG) (AG) (BG)
                 (AG)
       Virtual   (AU) (BU) (AG) (AG) (BU) (AU) (AG) (BG) (AG) (BU)
                 (BU) (BG) (AG) (AU) (AG) (AU) (BU) (AG) (BG) (AU)
                 (BU) (BU) (AU) (BU) (BG) (AG) (BU) (AU) (BU) (AG)
                 (AG) (BG) (AG) (BG) (AG) (BG) (BU) (AU) (BU) (BU)
                 (AU) (BG) (AG) (AU) (BG) (BU) (AG) (BU) (BG) (AG)
                 (AU) (BU) (AG) (AG) (BG) (BU) (AU) (BU) (AG) (AG)
                 (BG) (BU) (AU) (BU) (AG) (BG) (AU) (BU) (BU) (AU)
                 (BG) (AG) (BU) (BG) (BG) (AG) (BG) (AG) (AU) (BU)
                 (AG) (BU) (AU) (AU) (BU) (AG) (BU) (AU) (AG) (AG)
                 (BG) (AU) (BU) (BU) (BG) (AG) (BG) (AG) (AU) (AG)
                 (BG) (BG) (AU) (BU) (BU) (AG) (BG) (BU) (AU) (AU)
                 (AG) (AG) (BG) (AG) (AU) (BU) (BU) (BU) (BU) (AU)
                 (AG) (BG) (AG) (BU) (AU) (BU) (BG) (AG) (BG) (BU)
                 (AU) (AG) (BG) (AU) (AG) (AG) (BG) (BU) (AU) (AG)
                 (BU) (AG) (BG) (BU) (BU) (AU) (BG) (AG) (BU) (AU)
                 (BG) (AG) (BU)
 The electronic state of the initial guess is 1-AG.
 Leave Link  401 at Fri Dec  3 15:06:31 2021, MaxMem=  498073600 cpu:       0.7
 (Enter /apps/software//g09/l502.exe)
 Closed shell SCF:
 Requested convergence on RMS density matrix=1.00D-08 within 128 cycles.
 Requested convergence on MAX density matrix=1.00D-06.
 Requested convergence on             energy=1.00D-06.
 No special actions if energy rises.
 Using DIIS extrapolation, IDIIS=  1040.
 Integral symmetry usage will be decided dynamically.
 Keep R1 ints in memory in canonical form, NReq=135773479.
 IEnd=      118490 IEndB=      118490 NGot=   498073600 MDV=   365314108
 LenX=   365314108 LenY=   365281267
 Symmetry not used in FoFDir.
 MinBra= 0 MaxBra= 2 Meth= 1.
 IRaf=       0 NMat=   1 IRICut=       1 DoRegI=T DoRafI=F ISym2E= 0 JSym2E=0.

 Cycle   1  Pass 1  IDiag  1:
 E= -230.448036263044    
 DIIS: error= 6.69D-02 at cycle   1 NSaved=   1.
 NSaved= 1 IEnMin= 1 EnMin= -230.448036263044     IErMin= 1 ErrMin= 6.69D-02
 ErrMax= 6.69D-02 EMaxC= 1.00D-01 BMatC= 5.16D-01 BMatP= 5.16D-01
 IDIUse=3 WtCom= 3.31D-01 WtEn= 6.69D-01
 Coeff-Com:  0.100D+01
 Coeff-En:   0.100D+01
 Coeff:      0.100D+01
 Gap=     0.354 Goal=   None    Shift=    0.000
 GapD=    0.354 DampG=1.000 DampE=0.500 DampFc=0.5000 IDamp=-1.
 Damping current iteration by 5.00D-01
 RMSDP=2.45D-02 MaxDP=6.82D-01              OVMax= 1.60D-01

 Cycle   2  Pass 1  IDiag  1:
 E= -230.607113325587     Delta-E=       -0.159077062543 Rises=F Damp=T
 DIIS: error= 3.19D-02 at cycle   2 NSaved=   2.
 NSaved= 2 IEnMin= 2 EnMin= -230.607113325587     IErMin= 2 ErrMin= 3.19D-02
 ErrMax= 3.19D-02 EMaxC= 1.00D-01 BMatC= 1.11D-01 BMatP= 5.16D-01
 IDIUse=3 WtCom= 6.81D-01 WtEn= 3.19D-01
 Coeff-Com: -0.684D+00 0.168D+01
 Coeff-En:   0.000D+00 0.100D+01
 Coeff:     -0.465D+00 0.147D+01
 Gap=     0.388 Goal=   None    Shift=    0.000
 RMSDP=7.43D-03 MaxDP=2.58D-01 DE=-1.59D-01 OVMax= 4.96D-02

 Cycle   3  Pass 1  IDiag  1:
 E= -230.749468530108     Delta-E=       -0.142355204521 Rises=F Damp=F
 DIIS: error= 3.57D-03 at cycle   3 NSaved=   3.
 NSaved= 3 IEnMin= 3 EnMin= -230.749468530108     IErMin= 3 ErrMin= 3.57D-03
 ErrMax= 3.57D-03 EMaxC= 1.00D-01 BMatC= 1.24D-03 BMatP= 1.11D-01
 IDIUse=3 WtCom= 9.64D-01 WtEn= 3.57D-02
 Coeff-Com: -0.941D-01 0.151D+00 0.944D+00
 Coeff-En:   0.000D+00 0.000D+00 0.100D+01
 Coeff:     -0.907D-01 0.145D+00 0.946D+00
 Gap=     0.378 Goal=   None    Shift=    0.000
 RMSDP=8.68D-04 MaxDP=1.63D-02 DE=-1.42D-01 OVMax= 9.19D-03

 Cycle   4  Pass 1  IDiag  1:
 E= -230.750645226831     Delta-E=       -0.001176696722 Rises=F Damp=F
 DIIS: error= 6.44D-04 at cycle   4 NSaved=   4.
 NSaved= 4 IEnMin= 4 EnMin= -230.750645226831     IErMin= 4 ErrMin= 6.44D-04
 ErrMax= 6.44D-04 EMaxC= 1.00D-01 BMatC= 2.61D-05 BMatP= 1.24D-03
 IDIUse=3 WtCom= 9.94D-01 WtEn= 6.44D-03
 Coeff-Com:  0.797D-02-0.195D-01-0.942D-02 0.102D+01
 Coeff-En:   0.000D+00 0.000D+00 0.000D+00 0.100D+01
 Coeff:      0.792D-02-0.193D-01-0.936D-02 0.102D+01
 Gap=     0.378 Goal=   None    Shift=    0.000
 RMSDP=6.47D-04 MaxDP=1.96D-02 DE=-1.18D-03 OVMax= 1.82D-03

 Cycle   5  Pass 1  IDiag  1:
 E= -230.750690490947     Delta-E=       -0.000045264116 Rises=F Damp=F
 DIIS: error= 1.72D-04 at cycle   5 NSaved=   5.
 NSaved= 5 IEnMin= 5 EnMin= -230.750690490947     IErMin= 5 ErrMin= 1.72D-04
 ErrMax= 1.72D-04 EMaxC= 1.00D-01 BMatC= 1.84D-06 BMatP= 2.61D-05
 IDIUse=3 WtCom= 9.98D-01 WtEn= 1.72D-03
 Coeff-Com:  0.331D-02-0.450D-02-0.432D-01-0.193D+00 0.124D+01
 Coeff-En:   0.000D+00 0.000D+00 0.000D+00 0.000D+00 0.100D+01
 Coeff:      0.331D-02-0.449D-02-0.431D-01-0.193D+00 0.124D+01
 Gap=     0.378 Goal=   None    Shift=    0.000
 RMSDP=2.20D-04 MaxDP=6.69D-03 DE=-4.53D-05 OVMax= 6.81D-04

 Cycle   6  Pass 1  IDiag  1:
 E= -230.750694425739     Delta-E=       -0.000003934792 Rises=F Damp=F
 DIIS: error= 1.97D-05 at cycle   6 NSaved=   6.
 NSaved= 6 IEnMin= 6 EnMin= -230.750694425739     IErMin= 6 ErrMin= 1.97D-05
 ErrMax= 1.97D-05 EMaxC= 1.00D-01 BMatC= 1.61D-08 BMatP= 1.84D-06
 IDIUse=1 WtCom= 1.00D+00 WtEn= 0.00D+00
 Coeff-Com: -0.280D-03 0.425D-03 0.426D-02 0.108D-01-0.129D+00 0.111D+01
 Coeff:     -0.280D-03 0.425D-03 0.426D-02 0.108D-01-0.129D+00 0.111D+01
 Gap=     0.378 Goal=   None    Shift=    0.000
 RMSDP=1.68D-05 MaxDP=4.70D-04 DE=-3.93D-06 OVMax= 5.57D-05

 Cycle   7  Pass 1  IDiag  1:
 E= -230.750694460009     Delta-E=       -0.000000034270 Rises=F Damp=F
 DIIS: error= 4.95D-06 at cycle   7 NSaved=   7.
 NSaved= 7 IEnMin= 7 EnMin= -230.750694460009     IErMin= 7 ErrMin= 4.95D-06
 ErrMax= 4.95D-06 EMaxC= 1.00D-01 BMatC= 2.63D-09 BMatP= 1.61D-08
 IDIUse=1 WtCom= 1.00D+00 WtEn= 0.00D+00
 Coeff-Com: -0.223D-03 0.315D-03 0.301D-02 0.117D-01-0.890D-01 0.261D+00
 Coeff-Com:  0.813D+00
 Coeff:     -0.223D-03 0.315D-03 0.301D-02 0.117D-01-0.890D-01 0.261D+00
 Coeff:      0.813D+00
 Gap=     0.378 Goal=   None    Shift=    0.000
 RMSDP=1.38D-06 MaxDP=4.12D-05 DE=-3.43D-08 OVMax= 1.74D-05

 Cycle   8  Pass 1  IDiag  1:
 E= -230.750694463951     Delta-E=       -0.000000003942 Rises=F Damp=F
 DIIS: error= 1.77D-06 at cycle   8 NSaved=   8.
 NSaved= 8 IEnMin= 8 EnMin= -230.750694463951     IErMin= 8 ErrMin= 1.77D-06
 ErrMax= 1.77D-06 EMaxC= 1.00D-01 BMatC= 2.28D-10 BMatP= 2.63D-09
 IDIUse=1 WtCom= 1.00D+00 WtEn= 0.00D+00
 Coeff-Com:  0.629D-04-0.907D-04-0.101D-02-0.317D-02 0.296D-01-0.181D+00
 Coeff-Com: -0.123D+00 0.128D+01
 Coeff:      0.629D-04-0.907D-04-0.101D-02-0.317D-02 0.296D-01-0.181D+00
 Coeff:     -0.123D+00 0.128D+01
 Gap=     0.378 Goal=   None    Shift=    0.000
 RMSDP=8.28D-07 MaxDP=2.51D-05 DE=-3.94D-09 OVMax= 1.23D-05

 Cycle   9  Pass 1  IDiag  1:
 E= -230.750694464659     Delta-E=       -0.000000000707 Rises=F Damp=F
 DIIS: error= 4.05D-07 at cycle   9 NSaved=   9.
 NSaved= 9 IEnMin= 9 EnMin= -230.750694464659     IErMin= 9 ErrMin= 4.05D-07
 ErrMax= 4.05D-07 EMaxC= 1.00D-01 BMatC= 9.18D-12 BMatP= 2.28D-10
 IDIUse=1 WtCom= 1.00D+00 WtEn= 0.00D+00
 Coeff-Com: -0.156D-04 0.224D-04 0.287D-03 0.842D-03-0.835D-02 0.635D-01
 Coeff-Com:  0.132D-01-0.538D+00 0.147D+01
 Coeff:     -0.156D-04 0.224D-04 0.287D-03 0.842D-03-0.835D-02 0.635D-01
 Coeff:      0.132D-01-0.538D+00 0.147D+01
 Gap=     0.378 Goal=   None    Shift=    0.000
 RMSDP=1.74D-07 MaxDP=5.64D-06 DE=-7.07D-10 OVMax= 3.19D-06

 Cycle  10  Pass 1  IDiag  1:
 E= -230.750694464690     Delta-E=       -0.000000000031 Rises=F Damp=F
 DIIS: error= 3.18D-08 at cycle  10 NSaved=  10.
 NSaved=10 IEnMin=10 EnMin= -230.750694464690     IErMin=10 ErrMin= 3.18D-08
 ErrMax= 3.18D-08 EMaxC= 1.00D-01 BMatC= 1.19D-13 BMatP= 9.18D-12
 IDIUse=1 WtCom= 1.00D+00 WtEn= 0.00D+00
 Coeff-Com:  0.258D-05-0.349D-05-0.558D-04-0.155D-03 0.154D-02-0.126D-01
 Coeff-Com: -0.680D-03 0.112D+00-0.386D+00 0.129D+01
 Coeff:      0.258D-05-0.349D-05-0.558D-04-0.155D-03 0.154D-02-0.126D-01
 Coeff:     -0.680D-03 0.112D+00-0.386D+00 0.129D+01
 Gap=     0.378 Goal=   None    Shift=    0.000
 RMSDP=1.22D-07 MaxDP=3.25D-06 DE=-3.15D-11 OVMax= 2.62D-07

 Cycle  11  Pass 1  IDiag  1:
 E= -230.750694464689     Delta-E=        0.000000000001 Rises=F Damp=F
 DIIS: error= 3.61D-09 at cycle  11 NSaved=  11.
 NSaved=11 IEnMin=10 EnMin= -230.750694464690     IErMin=11 ErrMin= 3.61D-09
 ErrMax= 3.61D-09 EMaxC= 1.00D-01 BMatC= 1.78D-15 BMatP= 1.19D-13
 IDIUse=1 WtCom= 1.00D+00 WtEn= 0.00D+00
 Coeff-Com: -0.297D-06 0.363D-06 0.773D-05 0.201D-04-0.199D-03 0.173D-02
 Coeff-Com: -0.108D-03-0.160D-01 0.623D-01-0.295D+00 0.125D+01
 Coeff:     -0.297D-06 0.363D-06 0.773D-05 0.201D-04-0.199D-03 0.173D-02
 Coeff:     -0.108D-03-0.160D-01 0.623D-01-0.295D+00 0.125D+01
 Gap=     0.378 Goal=   None    Shift=    0.000
 RMSDP=9.27D-09 MaxDP=2.35D-07 DE= 7.96D-13 OVMax= 3.58D-08

 SCF Done:  E(RHF) =  -230.750694465     A.U. after   11 cycles
             Convg  =    0.9270D-08             -V/T =  2.0013
 KE= 2.304520925554D+02 PE=-9.437717783367D+02 EE= 2.790777186200D+02
 Leave Link  502 at Fri Dec  3 15:06:34 2021, MaxMem=  498073600 cpu:      19.8
 (Enter /apps/software//g09/l801.exe)
 ExpMin= 3.60D-02 ExpMax= 4.56D+03 ExpMxC= 6.82D+02 IAcc=3 IRadAn=         5 AccDes= 0.00D+00
 HarFok:  IExCor=  205 AccDes= 0.00D+00 IRadAn=         5 IDoV=-2
 ScaDFX=  1.000000  1.000000  1.000000  1.000000
 Largest valence mixing into a core orbital is  1.52D-04
 Largest core mixing into a valence orbital is  4.00D-05
 Range of M.O.s used for correlation:     7   174
 NBasis=   174 NAE=    21 NBE=    21 NFC=     6 NFV=     0
 NROrb=    168 NOA=    15 NOB=    15 NVA=   153 NVB=   153

 **** Warning!!: The largest alpha MO coefficient is  0.77729541D+02

 Leave Link  801 at Fri Dec  3 15:06:34 2021, MaxMem=  498073600 cpu:       1.1
 (Enter /apps/software//g09/l906.exe)
 Frozen-core derivative calculation, NFC=   6 NFV=   0.
 FulOut=F Deriv=T AODrv=F NAtomX=    12
   MMem=         574  MDisk=          15 MDiskD=          15
  W3Min=      657720 MinDsk=     1009670 NBas6D=         180
 NBas2D=       16542    NTT=       16290    LW2=     2040000
    MDV=   497694816 MDiskM=       38248 NBas2p=        4804
 Fully in-core method, ICMem=   280919484.
 IMap=   1   2   3   4   5   6   7   8   9  10  11  12  13  14  15  16  17  18  19  20
 IMap=  21
 JobTyp=1 Pass  1 fully in-core, NPsUse=  6.
 Compute canonical integrals, IntTyp=   4.
 Symmetry not used in FoFDir.
 MinBra= 0 MaxBra= 2 Meth= 1.
 IRaf=       0 NMat=   1 IRICut=       1 DoRegI=T DoRafI=F ISym2E= 0 JSym2E=0.
 Spin components of T(2) and E(2):
     alpha-alpha T2 =       0.4264275005D-01 E2=     -0.1081647260D+00
     alpha-beta  T2 =       0.2242351690D+00 E2=     -0.6145057298D+00
     beta-beta   T2 =       0.4264275005D-01 E2=     -0.1081647260D+00
 The integrals were generated   1 times.
 ANorm=    0.1144342898D+01
 E2 =    -0.8308351817D+00 EUMP2 =    -0.23158152964640D+03
 Leave Link  906 at Fri Dec  3 15:06:50 2021, MaxMem=  498073600 cpu:      94.7
 (Enter /apps/software//g09/l1002.exe)
 Minotr:  Closed shell wavefunction.
          Computing MP2/KS-MP2 derivatives.
          Using Z-Vector for PSCF gradient.
          Skipping F1 and S1 gradient terms here.
          Frozen-core window.
          Direct CPHF calculation.
          Differentiating once with respect to electric field.
                with respect to dipole field.
          Electric field/nuclear overlap derivatives assumed to be zero.
          Using symmetry in CPHF.
          Requested convergence is 1.0D-10 RMS, and 1.0D-09 maximum.
          NewPWx=F KeepS1=T KeepF1=T KeepIn=T MapXYZ=F SortEE=F KeepMc=T.
          MDV=     498073500 using IRadAn=       0.
          Keep R1 ints in memory in canonical form, NReq=133512102.
 Symmetry not used in FoFDir.
 MinBra= 0 MaxBra= 2 Meth= 1.
 IRaf=       0 NMat=   1 IRICut=       1 DoRegI=T DoRafI=F ISym2E= 0 JSym2E=0.
          Solving linear equations separately, MaxMat=       0.
          There are     1 degrees of freedom in the 1st order CPHF.  IDoFFX=0.
 LinEq1:  Iter=  0 NonCon=     1 RMS=3.38D-03 Max=5.98D-02
 AX will form     1 AO Fock derivatives at one time.
 LinEq1:  Iter=  1 NonCon=     1 RMS=8.26D-04 Max=1.50D-02
 LinEq1:  Iter=  2 NonCon=     1 RMS=2.33D-04 Max=5.33D-03
 LinEq1:  Iter=  3 NonCon=     1 RMS=4.91D-05 Max=7.98D-04
 LinEq1:  Iter=  4 NonCon=     1 RMS=7.20D-06 Max=1.02D-04
 LinEq1:  Iter=  5 NonCon=     1 RMS=7.33D-07 Max=9.14D-06
 LinEq1:  Iter=  6 NonCon=     1 RMS=1.82D-07 Max=3.48D-06
 LinEq1:  Iter=  7 NonCon=     1 RMS=4.40D-08 Max=5.67D-07
 LinEq1:  Iter=  8 NonCon=     1 RMS=4.06D-09 Max=6.55D-08
 LinEq1:  Iter=  9 NonCon=     1 RMS=5.67D-10 Max=1.19D-08
 LinEq1:  Iter= 10 NonCon=     1 RMS=8.20D-11 Max=1.37D-09
 LinEq1:  Iter= 11 NonCon=     0 RMS=7.46D-12 Max=1.20D-10
 Linear equations converged to 1.000D-10 1.000D-09 after    11 iterations.
 End of Minotr Frequency-dependent properties file   721 does not exist.
 End of Minotr Frequency-dependent properties file   722 does not exist.
 Leave Link 1002 at Fri Dec  3 15:06:54 2021, MaxMem=  498073600 cpu:      21.0
 (Enter /apps/software//g09/l601.exe)
 Copying SCF densities to generalized density rwf, IOpCl= 0 IROHF=0.

 **********************************************************************

            Population analysis using the MP2 density.

 **********************************************************************

 Orbital symmetries:
       Occupied  (AG) (AU) (BU) (BG) (AG) (BU) (AG) (AU) (BU) (BG)
                 (AG) (AG) (BU) (AU) (AU) (BU) (BU) (BG) (AG) (BG)
                 (AG)
       Virtual   (AG) (AU) (BU) (BG) (AG) (BU) (AU) (BU) (BU) (AG)
                 (BG) (AG) (AU) (AG) (BG) (BU) (AU) (AG) (BG) (AG)
                 (BU) (AU) (BU) (AG) (AU) (BU) (BG) (BU) (AU) (BU)
                 (BG) (AG) (AG) (AG) (BU) (AU) (BU) (BG) (AG) (AG)
                 (BG) (BU) (AU) (AU) (AG) (BU) (BG) (BU) (BU) (AU)
                 (BG) (AG) (BG) (AG) (BU) (AG) (AU) (BU) (AG) (BU)
                 (AU) (AG) (BG) (AG) (BU) (AU) (BG) (AG) (BU) (BG)
                 (BU) (AU) (BU) (BG) (AG) (BG) (BG) (AG) (AU) (BU)
                 (AG) (BU) (AU) (AU) (BU) (AG) (AG) (BU) (AU) (AG)
                 (BG) (AU) (BU) (BU) (BG) (AG) (BG) (AG) (AU) (BG)
                 (AG) (BG) (AU) (BU) (BU) (AG) (BG) (BU) (AU) (AG)
                 (AU) (BG) (AG) (AG) (BU) (AU) (BU) (BU) (AU) (AG)
                 (BU) (AU) (BU) (BG) (AG) (BU) (AG) (BG) (BG) (BU)
                 (AU) (AG) (BG) (AG) (AU) (AG) (BG) (BU) (AU) (AG)
                 (BU) (AG) (BG) (BU) (BU) (AU) (BG) (AG) (BU) (AU)
                 (BG) (AG) (BU)
 The electronic state is 1-AG.
 Alpha  occ. eigenvalues --  -11.23945 -11.23897 -11.23879 -11.23775 -11.23754
 Alpha  occ. eigenvalues --  -11.23704  -1.15231  -1.01644  -1.01589  -0.82506
 Alpha  occ. eigenvalues --   -0.82432  -0.71046  -0.64458  -0.61905  -0.58987
 Alpha  occ. eigenvalues --   -0.58842  -0.50191  -0.49666  -0.49511  -0.33640
 Alpha  occ. eigenvalues --   -0.33610
 Alpha virt. eigenvalues --    0.04210   0.04902   0.04906   0.06646   0.06651
 Alpha virt. eigenvalues --    0.09723   0.10797   0.10845   0.11342   0.14771
 Alpha virt. eigenvalues --    0.15176   0.15185   0.16290   0.18159   0.18177
 Alpha virt. eigenvalues --    0.18393   0.18395   0.19191   0.21250   0.21260
 Alpha virt. eigenvalues --    0.21417   0.21533   0.21559   0.22116   0.22859
 Alpha virt. eigenvalues --    0.22876   0.24547   0.24993   0.24996   0.26159
 Alpha virt. eigenvalues --    0.28912   0.28924   0.33350   0.35960   0.40457
 Alpha virt. eigenvalues --    0.40789   0.40816   0.42866   0.42870   0.49720
 Alpha virt. eigenvalues --    0.49727   0.50912   0.50980   0.60440   0.61092
 Alpha virt. eigenvalues --    0.63077   0.71484   0.72643   0.72863   0.72881
 Alpha virt. eigenvalues --    0.74774   0.74808   0.76050   0.76053   0.78885
 Alpha virt. eigenvalues --    0.80622   0.81757   0.81773   0.88391   0.93766
 Alpha virt. eigenvalues --    0.93845   0.94948   0.95065   0.97527   1.01195
 Alpha virt. eigenvalues --    1.01201   1.04823   1.04846   1.05817   1.09556
 Alpha virt. eigenvalues --    1.11919   1.11962   1.14035   1.20579   1.20702
 Alpha virt. eigenvalues --    1.28211   1.33738   1.33872   1.39125   1.39233
 Alpha virt. eigenvalues --    1.55317   1.56406   1.71171   1.78433   1.78749
 Alpha virt. eigenvalues --    1.79906   1.82584   1.84268   1.84308   1.90534
 Alpha virt. eigenvalues --    1.90702   1.93313   1.93540   1.99844   2.05247
 Alpha virt. eigenvalues --    2.05341   2.10231   2.10447   2.12853   2.16536
 Alpha virt. eigenvalues --    2.21736   2.22033   2.25849   2.26037   2.29526
 Alpha virt. eigenvalues --    2.35859   2.35899   2.37174   2.37278   2.62323
 Alpha virt. eigenvalues --    2.63855   2.74775   2.74853   2.76060   2.77264
 Alpha virt. eigenvalues --    2.81618   2.81783   2.95665   2.95960   2.99250
 Alpha virt. eigenvalues --    3.00901   3.02595   3.02637   3.04134   3.04164
 Alpha virt. eigenvalues --    3.08813   3.19035   3.19111   3.21924   3.29972
 Alpha virt. eigenvalues --    3.30029   3.32885   3.33064   3.47661   3.54405
 Alpha virt. eigenvalues --    3.77232   3.77259   3.90214   3.90224   3.92239
 Alpha virt. eigenvalues --    4.00551   4.40688   4.40824   4.45817   4.58272
 Alpha virt. eigenvalues --    4.58461   5.18497  24.74952  25.13022  25.13102
 Alpha virt. eigenvalues --   25.25504  25.25664  25.32236
          Condensed to atoms (all electrons):
              1          2          3          4          5          6
     1  C    7.424891  -1.308285   0.892472  -0.696135   0.892472  -1.308285
     2  C   -1.308285   7.421024  -1.303660   0.892472  -0.687134   0.888065
     3  C    0.892472  -1.303660   7.421024  -1.308285   0.888065  -0.687134
     4  C   -0.696135   0.892472  -1.308285   7.424891  -1.308285   0.892472
     5  C    0.892472  -0.687134   0.888065  -1.308285   7.421024  -1.303660
     6  C   -1.308285   0.888065  -0.687134   0.892472  -1.303660   7.421024
     7  H    0.549761  -0.178013   0.040098  -0.000506   0.040098  -0.178013
     8  H   -0.177618   0.548621  -0.177357   0.040516  -0.000638   0.040360
     9  H    0.040516  -0.177357   0.548621  -0.177618   0.040360  -0.000638
    10  H   -0.000506   0.040098  -0.178013   0.549761  -0.178013   0.040098
    11  H    0.040516  -0.000638   0.040360  -0.177618   0.548621  -0.177357
    12  H   -0.177618   0.040360  -0.000638   0.040516  -0.177357   0.548621
              7          8          9         10         11         12
     1  C    0.549761  -0.177618   0.040516  -0.000506   0.040516  -0.177618
     2  C   -0.178013   0.548621  -0.177357   0.040098  -0.000638   0.040360
     3  C    0.040098  -0.177357   0.548621  -0.178013   0.040360  -0.000638
     4  C   -0.000506   0.040516  -0.177618   0.549761  -0.177618   0.040516
     5  C    0.040098  -0.000638   0.040360  -0.178013   0.548621  -0.177357
     6  C   -0.178013   0.040360  -0.000638   0.040098  -0.177357   0.548621
     7  H    0.592612  -0.020875   0.000375   0.001035   0.000375  -0.020875
     8  H   -0.020875   0.591225  -0.020679   0.000375   0.000991   0.000403
     9  H    0.000375  -0.020679   0.591225  -0.020875   0.000403   0.000991
    10  H    0.001035   0.000375  -0.020875   0.592612  -0.020875   0.000375
    11  H    0.000375   0.000991   0.000403  -0.020875   0.591225  -0.020679
    12  H   -0.020875   0.000403   0.000991   0.000375  -0.020679   0.591225
 Mulliken atomic charges:
              1
     1  C   -0.172180
     2  C   -0.175552
     3  C   -0.175552
     4  C   -0.172180
     5  C   -0.175552
     6  C   -0.175552
     7  H    0.173929
     8  H    0.174677
     9  H    0.174677
    10  H    0.173929
    11  H    0.174677
    12  H    0.174677
 Sum of Mulliken atomic charges =   0.00000
 Mulliken charges with hydrogens summed into heavy atoms:
              1
     1  C    0.001750
     2  C   -0.000875
     3  C   -0.000875
     4  C    0.001750
     5  C   -0.000875
     6  C   -0.000875
 Sum of Mulliken charges with hydrogens summed into heavy atoms =   0.00000
 Electronic spatial extent (au):  <R**2>=            460.2704
 Charge=              0.0000 electrons
 Dipole moment (field-independent basis, Debye):
    X=              0.0000    Y=              0.0000    Z=              0.0000  Tot=              0.0000
 Quadrupole moment (field-independent basis, Debye-Ang):
   XX=            -40.8442   YY=            -32.6424   ZZ=            -32.5744
   XY=              0.0013   XZ=              0.0000   YZ=              0.0000
 Traceless Quadrupole moment (field-independent basis, Debye-Ang):
   XX=             -5.4905   YY=              2.7113   ZZ=              2.7793
   XY=              0.0013   XZ=              0.0000   YZ=              0.0000
 Octapole moment (field-independent basis, Debye-Ang**2):
  XXX=              0.0000  YYY=              0.0000  ZZZ=              0.0000  XYY=              0.0000
  XXY=              0.0000  XXZ=              0.0000  XZZ=              0.0000  YZZ=              0.0000
  YYZ=              0.0000  XYZ=              0.0000
 Hexadecapole moment (field-independent basis, Debye-Ang**3):
 XXXX=            -51.8325 YYYY=           -279.8318 ZZZZ=           -280.4157 XXXY=             -0.0013
 XXXZ=              0.0000 YYYX=              0.6211 YYYZ=              0.0000 ZZZX=              0.0000
 ZZZY=              0.0000 XXYY=            -66.2171 XXZZ=            -66.4254 YYZZ=            -93.1899
 XXYZ=              0.0000 YYXZ=              0.0000 ZZXY=             -0.6157
 N-N= 2.034912726966D+02 E-N=-9.446038421271D+02  KE= 2.314670879220D+02
 Symmetry AG   KE= 7.669982421291D+01
 Symmetry BG   KE= 3.992659157664D+01
 Symmetry AU   KE= 4.060972712037D+01
 Symmetry BU   KE= 7.423094501206D+01
 No NMR shielding tensors so no spin-rotation constants.
 Leave Link  601 at Fri Dec  3 15:06:54 2021, MaxMem=  498073600 cpu:       0.5
 (Enter /apps/software//g09/l9999.exe)
 1\1\GINC-DLT21\SP\RMP2-FC\6-311++G(d,p)\C6H6\ITAMAR\03-Dec-2021\0\\#P 
 MP2/6-311++G** DENSITY=MP2\\Chair-10\\0,1\C,0,0.,1.389745,-0.040348\C,
 0,1.208747,0.696873,0.040604\C,0,1.208747,-0.696873,-0.040604\C,0,0.,-
 1.389745,0.040348\C,0,-1.208747,-0.696873,-0.040604\C,0,-1.208747,0.69
 6873,0.040604\H,0,0.,2.474587,-0.032332\H,0,2.146672,1.241444,0.032108
 \H,0,2.146672,-1.241444,-0.032108\H,0,0.,-2.474587,0.032332\H,0,-2.146
 672,-1.241444,-0.032108\H,0,-2.146672,1.241444,0.032108\\Version=EM64L
 -G09RevA.02\State=1-AG\HF=-230.7506945\MP2=-231.5815296\RMSD=9.270e-09
 \Dipole=0.,0.,0.\Quadrupole=2.0663084,2.0157634,-4.0820717,0.,0.,-0.00
 02428\PG=C02H [SGH(C2H2),X(C4H4)]\\@


 IF YOU DON'T HAVE THE LAW - ARGUE THE FACTS.
 IF YOU DON'T HAVE THE FACTS - ARGUE THE LAW.
 IF YOU DON'T HAVE EITHER - POUND THE TABLE.
 Job cpu time:  0 days  0 hours  2 minutes 18.9 seconds.
 File lengths (MBytes):  RWF=     14 Int=      0 D2E=      0 Chk=      4 Scr=      1
 Normal termination of Gaussian 09 at Fri Dec  3 15:06:54 2021.
