Chair-10                                                                
SP        RMP2-FC                                                     6-311++G(d,p)       
Number of atoms                            I               12
Info1-9                                    I   N=           9
          19          19           0           0           0         110
           1           2           1
Full Title                                 C   N=           1
Chair-10    
Route                                      C   N=           3
#P MP2/6-311++G** nosymm Density=MP2
Charge                                     I                0
Multiplicity                               I                1
Number of electrons                        I               42
Number of alpha electrons                  I               21
Number of beta electrons                   I               21
Number of basis functions                  I              174
Number of independent functions            I              174
Number of point charges in /Mol/           I                0
Number of translation vectors              I                0
Atomic numbers                             I   N=          12
           6           6           6           6           6           6
           1           1           1           1           1           1
Nuclear charges                            R   N=          12
  6.00000000E+00  6.00000000E+00  6.00000000E+00  6.00000000E+00  6.00000000E+00
  6.00000000E+00  1.00000000E+00  1.00000000E+00  1.00000000E+00  1.00000000E+00
  1.00000000E+00  1.00000000E+00
Current cartesian coordinates              R   N=          36
  2.62622827E+00  0.00000000E+00  7.65688869E-02  1.31690862E+00  2.28420095E+00
 -7.65688869E-02 -1.31690862E+00  2.28420095E+00  7.65688869E-02 -2.62622827E+00
  0.00000000E+00 -7.65688869E-02 -1.31690862E+00 -2.28420095E+00  7.65688869E-02
  1.31690862E+00 -2.28420095E+00 -7.65688869E-02  4.67628452E+00  0.00000000E+00
  6.16723459E-02  2.34599677E+00  4.05662248E+00 -6.03875022E-02 -2.34599677E+00
  4.05662248E+00  6.03875022E-02 -4.67628452E+00  0.00000000E+00 -6.16723459E-02
 -2.34599677E+00 -4.05662248E+00  6.03875022E-02  2.34599677E+00 -4.05662248E+00
 -6.03875022E-02
Number of symbols in /Mol/                 I                0
Force Field                                I                0
Atom Types                                 C   N=          12
                                                            
                                                            
                        
Int Atom Types                             I   N=          12
           0           0           0           0           0           0
           0           0           0           0           0           0
MM charges                                 R   N=          12
  0.00000000E+00  0.00000000E+00  0.00000000E+00  0.00000000E+00  0.00000000E+00
  0.00000000E+00  0.00000000E+00  0.00000000E+00  0.00000000E+00  0.00000000E+00
  0.00000000E+00  0.00000000E+00
Integer atomic weights                     I   N=          12
          12          12          12          12          12          12
           1           1           1           1           1           1
Real atomic weights                        R   N=          12
  1.20000000E+01  1.20000000E+01  1.20000000E+01  1.20000000E+01  1.20000000E+01
  1.20000000E+01  1.00782504E+00  1.00782504E+00  1.00782504E+00  1.00782504E+00
  1.00782504E+00  1.00782504E+00
Atom fragment info                         I   N=          12
           0           0           0           0           0           0
           0           0           0           0           0           0
Atom residue num                           I   N=          12
           0           0           0           0           0           0
           0           0           0           0           0           0
Nuclear spins                              I   N=          12
           0           0           0           0           0           0
           1           1           1           1           1           1
Nuclear ZEff                               R   N=          12
 -3.60000000E+00 -3.60000000E+00 -3.60000000E+00 -3.60000000E+00 -3.60000000E+00
 -3.60000000E+00 -1.00000000E+00 -1.00000000E+00 -1.00000000E+00 -1.00000000E+00
 -1.00000000E+00 -1.00000000E+00
Nuclear ZNuc                               R   N=          12
  6.00000000E+00  6.00000000E+00  6.00000000E+00  6.00000000E+00  6.00000000E+00
  6.00000000E+00  1.00000000E+00  1.00000000E+00  1.00000000E+00  1.00000000E+00
  1.00000000E+00  1.00000000E+00
Nuclear QMom                               R   N=          12
  0.00000000E+00  0.00000000E+00  0.00000000E+00  0.00000000E+00  0.00000000E+00
  0.00000000E+00  0.00000000E+00  0.00000000E+00  0.00000000E+00  0.00000000E+00
  0.00000000E+00  0.00000000E+00
Nuclear GFac                               R   N=          12
  0.00000000E+00  0.00000000E+00  0.00000000E+00  0.00000000E+00  0.00000000E+00
  0.00000000E+00  2.79284600E+00  2.79284600E+00  2.79284600E+00  2.79284600E+00
  2.79284600E+00  2.79284600E+00
MicOpt                                     I   N=          12
          -1          -1          -1          -1          -1          -1
          -1          -1          -1          -1          -1          -1
Number of residues                         I                0
Number of secondary structures             I                0
Number of contracted shells                I               66
Number of primitive shells                 I              120
Pure/Cartesian d shells                    I                0
Pure/Cartesian f shells                    I                0
Highest angular momentum                   I                2
Largest degree of contraction              I                6
Shell types                                I   N=          66
           0          -1          -1          -1          -1          -2
           0          -1          -1          -1          -1          -2
           0          -1          -1          -1          -1          -2
           0          -1          -1          -1          -1          -2
           0          -1          -1          -1          -1          -2
           0          -1          -1          -1          -1          -2
           0           0           0           0           1           0
           0           0           0           1           0           0
           0           0           1           0           0           0
           0           1           0           0           0           0
           1           0           0           0           0           1
Number of primitives per shell             I   N=          66
           6           3           1           1           1           1
           6           3           1           1           1           1
           6           3           1           1           1           1
           6           3           1           1           1           1
           6           3           1           1           1           1
           6           3           1           1           1           1
           3           1           1           1           1           3
           1           1           1           1           3           1
           1           1           1           3           1           1
           1           1           3           1           1           1
           1           3           1           1           1           1
Shell to atom map                          I   N=          66
           1           1           1           1           1           1
           2           2           2           2           2           2
           3           3           3           3           3           3
           4           4           4           4           4           4
           5           5           5           5           5           5
           6           6           6           6           6           6
           7           7           7           7           7           8
           8           8           8           8           9           9
           9           9           9          10          10          10
          10          10          11          11          11          11
          11          12          12          12          12          12
Primitive exponents                        R   N=         120
  4.56324000E+03  6.82024000E+02  1.54973000E+02  4.44553000E+01  1.30290000E+01
  1.82773000E+00  2.09642000E+01  4.80331000E+00  1.45933000E+00  4.83456000E-01
  1.45585000E-01  4.38000000E-02  6.26000000E-01  4.56324000E+03  6.82024000E+02
  1.54973000E+02  4.44553000E+01  1.30290000E+01  1.82773000E+00  2.09642000E+01
  4.80331000E+00  1.45933000E+00  4.83456000E-01  1.45585000E-01  4.38000000E-02
  6.26000000E-01  4.56324000E+03  6.82024000E+02  1.54973000E+02  4.44553000E+01
  1.30290000E+01  1.82773000E+00  2.09642000E+01  4.80331000E+00  1.45933000E+00
  4.83456000E-01  1.45585000E-01  4.38000000E-02  6.26000000E-01  4.56324000E+03
  6.82024000E+02  1.54973000E+02  4.44553000E+01  1.30290000E+01  1.82773000E+00
  2.09642000E+01  4.80331000E+00  1.45933000E+00  4.83456000E-01  1.45585000E-01
  4.38000000E-02  6.26000000E-01  4.56324000E+03  6.82024000E+02  1.54973000E+02
  4.44553000E+01  1.30290000E+01  1.82773000E+00  2.09642000E+01  4.80331000E+00
  1.45933000E+00  4.83456000E-01  1.45585000E-01  4.38000000E-02  6.26000000E-01
  4.56324000E+03  6.82024000E+02  1.54973000E+02  4.44553000E+01  1.30290000E+01
  1.82773000E+00  2.09642000E+01  4.80331000E+00  1.45933000E+00  4.83456000E-01
  1.45585000E-01  4.38000000E-02  6.26000000E-01  3.38650000E+01  5.09479000E+00
  1.15879000E+00  3.25840000E-01  1.02741000E-01  3.60000000E-02  7.50000000E-01
  3.38650000E+01  5.09479000E+00  1.15879000E+00  3.25840000E-01  1.02741000E-01
  3.60000000E-02  7.50000000E-01  3.38650000E+01  5.09479000E+00  1.15879000E+00
  3.25840000E-01  1.02741000E-01  3.60000000E-02  7.50000000E-01  3.38650000E+01
  5.09479000E+00  1.15879000E+00  3.25840000E-01  1.02741000E-01  3.60000000E-02
  7.50000000E-01  3.38650000E+01  5.09479000E+00  1.15879000E+00  3.25840000E-01
  1.02741000E-01  3.60000000E-02  7.50000000E-01  3.38650000E+01  5.09479000E+00
  1.15879000E+00  3.25840000E-01  1.02741000E-01  3.60000000E-02  7.50000000E-01
Contraction coefficients                   R   N=         120
  1.96665025E-03  1.52306019E-02  7.61269097E-02  2.60801033E-01  6.16462078E-01
  2.21006028E-01  1.14660081E-01  9.19999648E-01 -3.03068213E-03  1.00000000E+00
  1.00000000E+00  1.00000000E+00  1.00000000E+00  1.96665025E-03  1.52306019E-02
  7.61269097E-02  2.60801033E-01  6.16462078E-01  2.21006028E-01  1.14660081E-01
  9.19999648E-01 -3.03068213E-03  1.00000000E+00  1.00000000E+00  1.00000000E+00
  1.00000000E+00  1.96665025E-03  1.52306019E-02  7.61269097E-02  2.60801033E-01
  6.16462078E-01  2.21006028E-01  1.14660081E-01  9.19999648E-01 -3.03068213E-03
  1.00000000E+00  1.00000000E+00  1.00000000E+00  1.00000000E+00  1.96665025E-03
  1.52306019E-02  7.61269097E-02  2.60801033E-01  6.16462078E-01  2.21006028E-01
  1.14660081E-01  9.19999648E-01 -3.03068213E-03  1.00000000E+00  1.00000000E+00
  1.00000000E+00  1.00000000E+00  1.96665025E-03  1.52306019E-02  7.61269097E-02
  2.60801033E-01  6.16462078E-01  2.21006028E-01  1.14660081E-01  9.19999648E-01
 -3.03068213E-03  1.00000000E+00  1.00000000E+00  1.00000000E+00  1.00000000E+00
  1.96665025E-03  1.52306019E-02  7.61269097E-02  2.60801033E-01  6.16462078E-01
  2.21006028E-01  1.14660081E-01  9.19999648E-01 -3.03068213E-03  1.00000000E+00
  1.00000000E+00  1.00000000E+00  1.00000000E+00  2.54938145E-02  1.90373109E-01
  8.52161486E-01  1.00000000E+00  1.00000000E+00  1.00000000E+00  1.00000000E+00
  2.54938145E-02  1.90373109E-01  8.52161486E-01  1.00000000E+00  1.00000000E+00
  1.00000000E+00  1.00000000E+00  2.54938145E-02  1.90373109E-01  8.52161486E-01
  1.00000000E+00  1.00000000E+00  1.00000000E+00  1.00000000E+00  2.54938145E-02
  1.90373109E-01  8.52161486E-01  1.00000000E+00  1.00000000E+00  1.00000000E+00
  1.00000000E+00  2.54938145E-02  1.90373109E-01  8.52161486E-01  1.00000000E+00
  1.00000000E+00  1.00000000E+00  1.00000000E+00  2.54938145E-02  1.90373109E-01
  8.52161486E-01  1.00000000E+00  1.00000000E+00  1.00000000E+00  1.00000000E+00
P(S=P) Contraction coefficients            R   N=         120
  0.00000000E+00  0.00000000E+00  0.00000000E+00  0.00000000E+00  0.00000000E+00
  0.00000000E+00  4.02486927E-02  2.37593957E-01  8.15853851E-01  1.00000000E+00
  1.00000000E+00  1.00000000E+00  0.00000000E+00  0.00000000E+00  0.00000000E+00
  0.00000000E+00  0.00000000E+00  0.00000000E+00  0.00000000E+00  4.02486927E-02
  2.37593957E-01  8.15853851E-01  1.00000000E+00  1.00000000E+00  1.00000000E+00
  0.00000000E+00  0.00000000E+00  0.00000000E+00  0.00000000E+00  0.00000000E+00
  0.00000000E+00  0.00000000E+00  4.02486927E-02  2.37593957E-01  8.15853851E-01
  1.00000000E+00  1.00000000E+00  1.00000000E+00  0.00000000E+00  0.00000000E+00
  0.00000000E+00  0.00000000E+00  0.00000000E+00  0.00000000E+00  0.00000000E+00
  4.02486927E-02  2.37593957E-01  8.15853851E-01  1.00000000E+00  1.00000000E+00
  1.00000000E+00  0.00000000E+00  0.00000000E+00  0.00000000E+00  0.00000000E+00
  0.00000000E+00  0.00000000E+00  0.00000000E+00  4.02486927E-02  2.37593957E-01
  8.15853851E-01  1.00000000E+00  1.00000000E+00  1.00000000E+00  0.00000000E+00
  0.00000000E+00  0.00000000E+00  0.00000000E+00  0.00000000E+00  0.00000000E+00
  0.00000000E+00  4.02486927E-02  2.37593957E-01  8.15853851E-01  1.00000000E+00
  1.00000000E+00  1.00000000E+00  0.00000000E+00  0.00000000E+00  0.00000000E+00
  0.00000000E+00  0.00000000E+00  0.00000000E+00  0.00000000E+00  0.00000000E+00
  0.00000000E+00  0.00000000E+00  0.00000000E+00  0.00000000E+00  0.00000000E+00
  0.00000000E+00  0.00000000E+00  0.00000000E+00  0.00000000E+00  0.00000000E+00
  0.00000000E+00  0.00000000E+00  0.00000000E+00  0.00000000E+00  0.00000000E+00
  0.00000000E+00  0.00000000E+00  0.00000000E+00  0.00000000E+00  0.00000000E+00
  0.00000000E+00  0.00000000E+00  0.00000000E+00  0.00000000E+00  0.00000000E+00
  0.00000000E+00  0.00000000E+00  0.00000000E+00  0.00000000E+00  0.00000000E+00
  0.00000000E+00  0.00000000E+00  0.00000000E+00  0.00000000E+00  0.00000000E+00
Coordinates of each shell                  R   N=         198
  2.62622827E+00  0.00000000E+00  7.65688869E-02  2.62622827E+00  0.00000000E+00
  7.65688869E-02  2.62622827E+00  0.00000000E+00  7.65688869E-02  2.62622827E+00
  0.00000000E+00  7.65688869E-02  2.62622827E+00  0.00000000E+00  7.65688869E-02
  2.62622827E+00  0.00000000E+00  7.65688869E-02  1.31690862E+00  2.28420095E+00
 -7.65688869E-02  1.31690862E+00  2.28420095E+00 -7.65688869E-02  1.31690862E+00
  2.28420095E+00 -7.65688869E-02  1.31690862E+00  2.28420095E+00 -7.65688869E-02
  1.31690862E+00  2.28420095E+00 -7.65688869E-02  1.31690862E+00  2.28420095E+00
 -7.65688869E-02 -1.31690862E+00  2.28420095E+00  7.65688869E-02 -1.31690862E+00
  2.28420095E+00  7.65688869E-02 -1.31690862E+00  2.28420095E+00  7.65688869E-02
 -1.31690862E+00  2.28420095E+00  7.65688869E-02 -1.31690862E+00  2.28420095E+00
  7.65688869E-02 -1.31690862E+00  2.28420095E+00  7.65688869E-02 -2.62622827E+00
  0.00000000E+00 -7.65688869E-02 -2.62622827E+00  0.00000000E+00 -7.65688869E-02
 -2.62622827E+00  0.00000000E+00 -7.65688869E-02 -2.62622827E+00  0.00000000E+00
 -7.65688869E-02 -2.62622827E+00  0.00000000E+00 -7.65688869E-02 -2.62622827E+00
  0.00000000E+00 -7.65688869E-02 -1.31690862E+00 -2.28420095E+00  7.65688869E-02
 -1.31690862E+00 -2.28420095E+00  7.65688869E-02 -1.31690862E+00 -2.28420095E+00
  7.65688869E-02 -1.31690862E+00 -2.28420095E+00  7.65688869E-02 -1.31690862E+00
 -2.28420095E+00  7.65688869E-02 -1.31690862E+00 -2.28420095E+00  7.65688869E-02
  1.31690862E+00 -2.28420095E+00 -7.65688869E-02  1.31690862E+00 -2.28420095E+00
 -7.65688869E-02  1.31690862E+00 -2.28420095E+00 -7.65688869E-02  1.31690862E+00
 -2.28420095E+00 -7.65688869E-02  1.31690862E+00 -2.28420095E+00 -7.65688869E-02
  1.31690862E+00 -2.28420095E+00 -7.65688869E-02  4.67628452E+00  0.00000000E+00
  6.16723459E-02  4.67628452E+00  0.00000000E+00  6.16723459E-02  4.67628452E+00
  0.00000000E+00  6.16723459E-02  4.67628452E+00  0.00000000E+00  6.16723459E-02
  4.67628452E+00  0.00000000E+00  6.16723459E-02  2.34599677E+00  4.05662248E+00
 -6.03875022E-02  2.34599677E+00  4.05662248E+00 -6.03875022E-02  2.34599677E+00
  4.05662248E+00 -6.03875022E-02  2.34599677E+00  4.05662248E+00 -6.03875022E-02
  2.34599677E+00  4.05662248E+00 -6.03875022E-02 -2.34599677E+00  4.05662248E+00
  6.03875022E-02 -2.34599677E+00  4.05662248E+00  6.03875022E-02 -2.34599677E+00
  4.05662248E+00  6.03875022E-02 -2.34599677E+00  4.05662248E+00  6.03875022E-02
 -2.34599677E+00  4.05662248E+00  6.03875022E-02 -4.67628452E+00  0.00000000E+00
 -6.16723459E-02 -4.67628452E+00  0.00000000E+00 -6.16723459E-02 -4.67628452E+00
  0.00000000E+00 -6.16723459E-02 -4.67628452E+00  0.00000000E+00 -6.16723459E-02
 -4.67628452E+00  0.00000000E+00 -6.16723459E-02 -2.34599677E+00 -4.05662248E+00
  6.03875022E-02 -2.34599677E+00 -4.05662248E+00  6.03875022E-02 -2.34599677E+00
 -4.05662248E+00  6.03875022E-02 -2.34599677E+00 -4.05662248E+00  6.03875022E-02
 -2.34599677E+00 -4.05662248E+00  6.03875022E-02  2.34599677E+00 -4.05662248E+00
 -6.03875022E-02  2.34599677E+00 -4.05662248E+00 -6.03875022E-02  2.34599677E+00
 -4.05662248E+00 -6.03875022E-02  2.34599677E+00 -4.05662248E+00 -6.03875022E-02
  2.34599677E+00 -4.05662248E+00 -6.03875022E-02
Num ILSW                                   I              100
ILSW                                       I   N=         100
           0           0           0           0           2           0
           0           0           0           0           0          -1
           5           0           0           0           0           0
           0           0           0           0           0           0
           1           1           0           0           0           0
           0           0      100000           0          -1           0
           0           0           0           0           0           0
           0           0           0           1           0           0
           0 -2000000000           1           0           0           0
           0           0           4          52           0           0
           0           0           0           0           0           0
           0           0           0          12           0           1
           0           0           0           0           0           0
           0           0           0           0           0           0
           0           0           0           0           0           0
           0           0           0           0           0           0
           0           0           0           0
Num RLSW                                   I               52
RLSW                                       R   N=          52
  1.00000000E+00  1.00000000E+00  1.00000000E+00  1.00000000E+00  1.00000000E+00
  0.00000000E+00  0.00000000E+00  1.00000000E+00  0.00000000E+00  0.00000000E+00
  0.00000000E+00  0.00000000E+00  1.00000000E+00  0.00000000E+00  0.00000000E+00
  0.00000000E+00  0.00000000E+00  1.00000000E+00  0.00000000E+00  0.00000000E+00
  0.00000000E+00  0.00000000E+00  1.00000000E+00  0.00000000E+00  0.00000000E+00
  0.00000000E+00  0.00000000E+00  1.00000000E+00  0.00000000E+00  0.00000000E+00
  0.00000000E+00  0.00000000E+00  1.00000000E+00  0.00000000E+00  0.00000000E+00
  0.00000000E+00  0.00000000E+00  0.00000000E+00  1.00000000E+00  1.00000000E+00
  0.00000000E+00  1.00000000E+00  0.00000000E+00  0.00000000E+00  0.00000000E+00
  0.00000000E+00  0.00000000E+00  0.00000000E+00  0.00000000E+00  0.00000000E+00
  0.00000000E+00  0.00000000E+00
MxBond                                     I                3
NBond                                      I   N=          12
           3           3           3           3           3           3
           1           1           1           1           1           1
IBond                                      I   N=          36
           2           6           7           1           3           8
           2           4           9           3           5          10
           4           6          11           1           5          12
           1           0           0           2           0           0
           3           0           0           4           0           0
           5           0           0           6           0           0
RBond                                      R   N=          36
  1.50000000E+00  1.50000000E+00  1.00000000E+00  1.50000000E+00  1.50000000E+00
  1.00000000E+00  1.50000000E+00  1.50000000E+00  1.00000000E+00  1.50000000E+00
  1.50000000E+00  1.00000000E+00  1.50000000E+00  1.50000000E+00  1.00000000E+00
  1.50000000E+00  1.50000000E+00  1.00000000E+00  1.00000000E+00  0.00000000E+00
  0.00000000E+00  1.00000000E+00  0.00000000E+00  0.00000000E+00  1.00000000E+00
  0.00000000E+00  0.00000000E+00  1.00000000E+00  0.00000000E+00  0.00000000E+00
  1.00000000E+00  0.00000000E+00  0.00000000E+00  1.00000000E+00  0.00000000E+00
  0.00000000E+00
Virial Ratio                               R      2.001295732254469E+00
SCF Energy                                 R     -2.307506944473134E+02
MP2 Energy                                 R     -2.315815296543665E+02
Total Energy                               R     -2.315815296543665E+02
Post-SCF wavefunction norm                 R      1.144342914872594E+00
RMS Density                                R      4.262098412822596E-09
Job Status                                 I                1
Nuclear derivative order                   I                0
External E-field                           R   N=          35
  0.00000000E+00  0.00000000E+00  0.00000000E+00  0.00000000E+00  0.00000000E+00
  0.00000000E+00  0.00000000E+00  0.00000000E+00  0.00000000E+00  0.00000000E+00
  0.00000000E+00  0.00000000E+00  0.00000000E+00  0.00000000E+00  0.00000000E+00
  0.00000000E+00  0.00000000E+00  0.00000000E+00  0.00000000E+00  0.00000000E+00
  0.00000000E+00  0.00000000E+00  0.00000000E+00  0.00000000E+00  0.00000000E+00
  0.00000000E+00  0.00000000E+00  0.00000000E+00  0.00000000E+00  0.00000000E+00
  0.00000000E+00  0.00000000E+00  0.00000000E+00  0.00000000E+00  0.00000000E+00
IOpCl                                      I                0
IROHF                                      I                0
Alpha Orbital Energies                     R   N=         174
 -1.12394494E+01 -1.12389694E+01 -1.12387876E+01 -1.12377485E+01 -1.12375422E+01
 -1.12370400E+01 -1.15230955E+00 -1.01643507E+00 -1.01589461E+00 -8.25063400E-01
 -8.24322261E-01 -7.10463243E-01 -6.44576397E-01 -6.19051553E-01 -5.89865026E-01
 -5.88422996E-01 -5.01909840E-01 -4.96658647E-01 -4.95111651E-01 -3.36402448E-01
 -3.36100417E-01  4.20995979E-02  4.90207874E-02  4.90608643E-02  6.64644006E-02
  6.65138626E-02  9.72331197E-02  1.07965432E-01  1.08450241E-01  1.13421172E-01
  1.47713310E-01  1.51758024E-01  1.51853781E-01  1.62895238E-01  1.81594691E-01
  1.81767957E-01  1.83932455E-01  1.83951327E-01  1.91909733E-01  2.12499005E-01
  2.12603147E-01  2.14173367E-01  2.15331249E-01  2.15592974E-01  2.21158506E-01
  2.28592087E-01  2.28759271E-01  2.45467167E-01  2.49930028E-01  2.49955880E-01
  2.61594271E-01  2.89118074E-01  2.89241564E-01  3.33496366E-01  3.59604028E-01
  4.04572366E-01  4.07886101E-01  4.08155181E-01  4.28655073E-01  4.28697183E-01
  4.97203463E-01  4.97274431E-01  5.09123510E-01  5.09803230E-01  6.04395968E-01
  6.10923573E-01  6.30766557E-01  7.14835965E-01  7.26429801E-01  7.28630749E-01
  7.28806125E-01  7.47743007E-01  7.48081546E-01  7.60503714E-01  7.60529765E-01
  7.88851191E-01  8.06224746E-01  8.17570609E-01  8.17732073E-01  8.83911450E-01
  9.37656774E-01  9.38449871E-01  9.49482304E-01  9.50654023E-01  9.75266393E-01
  1.01195069E+00  1.01200806E+00  1.04823425E+00  1.04845999E+00  1.05816734E+00
  1.09555522E+00  1.11918980E+00  1.11961648E+00  1.14035311E+00  1.20579110E+00
  1.20701668E+00  1.28210871E+00  1.33737665E+00  1.33872251E+00  1.39124966E+00
  1.39233043E+00  1.55317114E+00  1.56405899E+00  1.71170848E+00  1.78432579E+00
  1.78748622E+00  1.79906408E+00  1.82583673E+00  1.84267630E+00  1.84307871E+00
  1.90534249E+00  1.90701570E+00  1.93313423E+00  1.93539622E+00  1.99843969E+00
  2.05246761E+00  2.05341416E+00  2.10230616E+00  2.10446520E+00  2.12853171E+00
  2.16535952E+00  2.21735914E+00  2.22032554E+00  2.25848788E+00  2.26037265E+00
  2.29525619E+00  2.35859086E+00  2.35899208E+00  2.37173864E+00  2.37277825E+00
  2.62323234E+00  2.63854612E+00  2.74775425E+00  2.74853034E+00  2.76060144E+00
  2.77264265E+00  2.81618410E+00  2.81783385E+00  2.95665180E+00  2.95959989E+00
  2.99250269E+00  3.00900536E+00  3.02594700E+00  3.02636639E+00  3.04134115E+00
  3.04163528E+00  3.08812869E+00  3.19034997E+00  3.19111197E+00  3.21923844E+00
  3.29971676E+00  3.30028512E+00  3.32884675E+00  3.33064338E+00  3.47661037E+00
  3.54404674E+00  3.77231589E+00  3.77258534E+00  3.90213756E+00  3.90224052E+00
  3.92238959E+00  4.00551413E+00  4.40687960E+00  4.40823507E+00  4.45816772E+00
  4.58272165E+00  4.58461149E+00  5.18496505E+00  2.47495158E+01  2.51302195E+01
  2.51310193E+01  2.52550420E+01  2.52566373E+01  2.53223576E+01
Alpha MO coefficients                      R   N=       30276
  2.05883604E-01  1.70459771E-01 -3.79186009E-05  2.90976839E-15 -1.85728176E-05
  1.85606532E-03 -1.83167357E-04  2.45882439E-15 -1.87934103E-05 -3.72172548E-04
  5.29478130E-06 -1.86959565E-13  8.48354022E-05 -3.78222555E-04 -8.24876639E-05
  3.10605274E-12 -3.56905849E-04 -9.55657946E-05  2.54927981E-06  1.46187377E-15
 -6.42112568E-05  8.96551599E-16  2.41027773E-01  1.99570996E-01 -2.13007396E-05
 -1.45919152E-05  2.11677655E-05  2.10227055E-03 -1.03670410E-04 -1.62934212E-04
  1.99831960E-05 -4.11157912E-04  1.45587815E-05  2.09267487E-05 -8.44936811E-05
  4.54206600E-05 -1.23667699E-04 -2.26028445E-04  3.60355461E-04 -1.26220513E-04
 -1.32821228E-06 -3.46378014E-06  3.53586430E-05 -5.49430294E-05  2.41027773E-01
  1.99570996E-01  2.13007396E-05 -1.45919152E-05 -2.11677655E-05  2.10227055E-03
  1.03670410E-04 -1.62934212E-04 -1.99831960E-05 -4.11157911E-04 -1.45587810E-05
  2.09267480E-05  8.44936811E-05  4.54206588E-05  1.23667698E-04 -2.26028445E-04
 -3.60355461E-04 -1.26220513E-04 -1.32821229E-06  3.46378014E-06  3.53586430E-05
  5.49430294E-05  2.05883604E-01  1.70459771E-01  3.79186009E-05 -2.95812627E-15
  1.85728176E-05  1.85606532E-03  1.83167357E-04 -1.58153865E-15  1.87934103E-05
 -3.72172549E-04 -5.29478205E-06  1.84265604E-13 -8.48354022E-05 -3.78222534E-04
  8.24876660E-05 -2.08894084E-12  3.56905850E-04 -9.55657946E-05  2.54927980E-06
  1.56418302E-15 -6.42112568E-05 -2.92952592E-16  2.41027773E-01  1.99570996E-01
  2.13007396E-05  1.45919151E-05 -2.11677655E-05  2.10227055E-03  1.03670410E-04
  1.62934212E-04 -1.99831960E-05 -4.11157911E-04 -1.45587813E-05 -2.09267480E-05
  8.44936810E-05  4.54206536E-05  1.23667700E-04  2.26028441E-04 -3.60355461E-04
 -1.26220513E-04 -1.32821229E-06 -3.46378014E-06  3.53586430E-05 -5.49430294E-05
  2.41027773E-01  1.99570996E-01 -2.13007396E-05  1.45919152E-05  2.11677655E-05
  2.10227055E-03 -1.03670410E-04  1.62934212E-04  1.99831959E-05 -4.11157913E-04
  1.45587812E-05 -2.09267487E-05 -8.44936811E-05  4.54206685E-05 -1.23667696E-04
  2.26028449E-04  3.60355461E-04 -1.26220513E-04 -1.32821228E-06  3.46378014E-06
  3.53586430E-05  5.49430294E-05  1.58290700E-04  5.48818283E-06  1.99315387E-04
  5.60527399E-05 -3.45156043E-05  6.27158173E-15 -5.20176847E-06  1.83967569E-04
 -1.03087665E-05  2.28301878E-04  1.21929132E-04 -1.75911606E-05 -2.84049241E-05
  5.42505397E-06  1.83967569E-04 -1.03087664E-05  2.28301879E-04  1.21929132E-04
  1.75911606E-05 -2.84049241E-05 -5.42505398E-06  1.58290700E-04  5.48818281E-06
  1.99315387E-04  5.60527400E-05  3.45156043E-05 -5.82460822E-15  5.20176846E-06
  1.83967569E-04 -1.03087664E-05  2.28301878E-04  1.21929132E-04  1.75911606E-05
  2.84049241E-05 -5.42505398E-06  1.83967569E-04 -1.03087664E-05  2.28301878E-04
  1.21929133E-04 -1.75911606E-05  2.84049241E-05  5.42505397E-06  7.89135320E-12
  6.53502579E-12 -3.70121414E-15  1.85747341E-04 -1.01550111E-15  7.53358776E-14
 -1.06901442E-15  1.47341658E-04 -6.08320564E-15 -1.11269473E-14 -8.76045060E-14
 -1.88027373E-04  1.39496188E-14 -3.86911621E-12  6.11866248E-13  9.52513432E-04
  4.87966280E-14  1.56193408E-15 -6.57950152E-16  5.64005558E-06 -1.64508807E-15
 -1.05885139E-04  2.81619537E-01  2.33212235E-01 -8.08025065E-05  4.35416799E-05
  2.77029560E-05  2.30064748E-03 -1.25434538E-04 -6.98288030E-05  3.59855720E-06
 -3.21097205E-04  7.32432532E-05 -6.01092231E-05  7.86461860E-06 -9.62006364E-04
 -9.10601168E-04 -6.24560425E-04 -7.45063330E-05 -1.67459760E-04 -2.78480778E-07
 -6.17694274E-06  8.31492681E-05 -3.85070138E-05  2.81619537E-01  2.33212235E-01
  8.08025065E-05  4.35416799E-05 -2.77029560E-05  2.30064748E-03  1.25434538E-04
 -6.98288030E-05 -3.59855722E-06 -3.21097205E-04 -7.32432530E-05 -6.01092231E-05
 -7.86461859E-06 -9.62006380E-04  9.10601167E-04 -6.24560422E-04  7.45063333E-05
 -1.67459760E-04 -2.78480780E-07  6.17694274E-06  8.31492681E-05  3.85070138E-05
 -2.23747559E-11 -1.85301719E-11  3.25386208E-15  1.85747341E-04 -1.11499828E-15
 -1.56589299E-13 -1.88724614E-14  1.47341658E-04 -7.87671268E-15 -2.28569646E-13
 -2.17211972E-14 -1.88027372E-04  9.59885582E-15  9.36009160E-12  2.41206285E-12
  9.52513432E-04  1.47723328E-13  2.30246908E-14  7.16345303E-16 -5.64005558E-06