Boat-5                                                                  
SP        RMP2-FC                                                     6-311++G(d,p)       
Number of atoms                            I               12
Info1-9                                    I   N=           9
          24          21           0           0           0         110
           1           2           1
Charge                                     I                0
Multiplicity                               I                1
Number of electrons                        I               42
Number of alpha electrons                  I               21
Number of beta electrons                   I               21
Number of basis functions                  I              174
Number of independent functions            I              173
Number of point charges in /Mol/           I                0
Number of translation vectors              I                0
Atomic numbers                             I   N=          12
           6           6           6           6           6           6
           1           1           1           1           1           1
Nuclear charges                            R   N=          12
  6.00000000E+00  6.00000000E+00  6.00000000E+00  6.00000000E+00  6.00000000E+00
  6.00000000E+00  1.00000000E+00  1.00000000E+00  1.00000000E+00  1.00000000E+00
  1.00000000E+00  1.00000000E+00
Current cartesian coordinates              R   N=          36
  3.40190340E-03  2.63532109E+00 -3.83483024E-02 -2.28089925E+00  1.31978085E+00
 -3.83483024E-02 -2.28089925E+00 -1.31349747E+00  7.66018485E-02 -3.40190340E-03
 -2.63532109E+00 -3.83483024E-02  2.28089925E+00 -1.31978085E+00 -3.83483024E-02
  2.28089925E+00  1.31349747E+00  7.66018485E-02  7.03457012E-03  4.68434836E+00
 -6.49839922E-02 -4.05497407E+00  2.34507631E+00 -6.52504436E-02 -4.05625243E+00
 -2.33580517E+00  1.30802973E-01 -7.03457012E-03 -4.68434836E+00 -6.49839922E-02
  4.05497407E+00 -2.34507631E+00 -6.52504436E-02  4.05625243E+00  2.33580517E+00
  1.30802973E-01
Force Field                                I                0
Int Atom Types                             I   N=          12
           0           0           0           0           0           0
           0           0           0           0           0           0
MM charges                                 R   N=          12
  0.00000000E+00  0.00000000E+00  0.00000000E+00  0.00000000E+00  0.00000000E+00
  0.00000000E+00  0.00000000E+00  0.00000000E+00  0.00000000E+00  0.00000000E+00
  0.00000000E+00  0.00000000E+00
Integer atomic weights                     I   N=          12
          12          12          12          12          12          12
           1           1           1           1           1           1
Real atomic weights                        R   N=          12
  1.20000000E+01  1.20000000E+01  1.20000000E+01  1.20000000E+01  1.20000000E+01
  1.20000000E+01  1.00782504E+00  1.00782504E+00  1.00782504E+00  1.00782504E+00
  1.00782504E+00  1.00782504E+00
Atom fragment info                         I   N=          12
           0           0           0           0           0           0
           0           0           0           0           0           0
Atom residue num                           I   N=          12
           0           0           0           0           0           0
           0           0           0           0           0           0
Nuclear spins                              I   N=          12
           0           0           0           0           0           0
           1           1           1           1           1           1
Nuclear ZEff                               R   N=          12
 -3.60000000E+00 -3.60000000E+00 -3.60000000E+00 -3.60000000E+00 -3.60000000E+00
 -3.60000000E+00 -1.00000000E+00 -1.00000000E+00 -1.00000000E+00 -1.00000000E+00
 -1.00000000E+00 -1.00000000E+00
Nuclear QMom                               R   N=          12
  0.00000000E+00  0.00000000E+00  0.00000000E+00  0.00000000E+00  0.00000000E+00
  0.00000000E+00  0.00000000E+00  0.00000000E+00  0.00000000E+00  0.00000000E+00
  0.00000000E+00  0.00000000E+00
Nuclear GFac                               R   N=          12
  0.00000000E+00  0.00000000E+00  0.00000000E+00  0.00000000E+00  0.00000000E+00
  0.00000000E+00  2.79284600E+00  2.79284600E+00  2.79284600E+00  2.79284600E+00
  2.79284600E+00  2.79284600E+00
MicOpt                                     I   N=          12
          -1          -1          -1          -1          -1          -1
          -1          -1          -1          -1          -1          -1
Number of contracted shells                I               66
Number of primitive shells                 I              120
Pure/Cartesian d shells                    I                0
Pure/Cartesian f shells                    I                0
Highest angular momentum                   I                2
Largest degree of contraction              I                6
Shell types                                I   N=          66
           0          -1          -1          -1          -1          -2
           0          -1          -1          -1          -1          -2
           0          -1          -1          -1          -1          -2
           0          -1          -1          -1          -1          -2
           0          -1          -1          -1          -1          -2
           0          -1          -1          -1          -1          -2
           0           0           0           0           1           0
           0           0           0           1           0           0
           0           0           1           0           0           0
           0           1           0           0           0           0
           1           0           0           0           0           1
Number of primitives per shell             I   N=          66
           6           3           1           1           1           1
           6           3           1           1           1           1
           6           3           1           1           1           1
           6           3           1           1           1           1
           6           3           1           1           1           1
           6           3           1           1           1           1
           3           1           1           1           1           3
           1           1           1           1           3           1
           1           1           1           3           1           1
           1           1           3           1           1           1
           1           3           1           1           1           1
Shell to atom map                          I   N=          66
           1           1           1           1           1           1
           2           2           2           2           2           2
           3           3           3           3           3           3
           4           4           4           4           4           4
           5           5           5           5           5           5
           6           6           6           6           6           6
           7           7           7           7           7           8
           8           8           8           8           9           9
           9           9           9          10          10          10
          10          10          11          11          11          11
          11          12          12          12          12          12
Primitive exponents                        R   N=         120
  4.56324000E+03  6.82024000E+02  1.54973000E+02  4.44553000E+01  1.30290000E+01
  1.82773000E+00  2.09642000E+01  4.80331000E+00  1.45933000E+00  4.83456000E-01
  1.45585000E-01  4.38000000E-02  6.26000000E-01  4.56324000E+03  6.82024000E+02
  1.54973000E+02  4.44553000E+01  1.30290000E+01  1.82773000E+00  2.09642000E+01
  4.80331000E+00  1.45933000E+00  4.83456000E-01  1.45585000E-01  4.38000000E-02
  6.26000000E-01  4.56324000E+03  6.82024000E+02  1.54973000E+02  4.44553000E+01
  1.30290000E+01  1.82773000E+00  2.09642000E+01  4.80331000E+00  1.45933000E+00
  4.83456000E-01  1.45585000E-01  4.38000000E-02  6.26000000E-01  4.56324000E+03
  6.82024000E+02  1.54973000E+02  4.44553000E+01  1.30290000E+01  1.82773000E+00
  2.09642000E+01  4.80331000E+00  1.45933000E+00  4.83456000E-01  1.45585000E-01
  4.38000000E-02  6.26000000E-01  4.56324000E+03  6.82024000E+02  1.54973000E+02
  4.44553000E+01  1.30290000E+01  1.82773000E+00  2.09642000E+01  4.80331000E+00
  1.45933000E+00  4.83456000E-01  1.45585000E-01  4.38000000E-02  6.26000000E-01
  4.56324000E+03  6.82024000E+02  1.54973000E+02  4.44553000E+01  1.30290000E+01
  1.82773000E+00  2.09642000E+01  4.80331000E+00  1.45933000E+00  4.83456000E-01
  1.45585000E-01  4.38000000E-02  6.26000000E-01  3.38650000E+01  5.09479000E+00
  1.15879000E+00  3.25840000E-01  1.02741000E-01  3.60000000E-02  7.50000000E-01
  3.38650000E+01  5.09479000E+00  1.15879000E+00  3.25840000E-01  1.02741000E-01
  3.60000000E-02  7.50000000E-01  3.38650000E+01  5.09479000E+00  1.15879000E+00
  3.25840000E-01  1.02741000E-01  3.60000000E-02  7.50000000E-01  3.38650000E+01
  5.09479000E+00  1.15879000E+00  3.25840000E-01  1.02741000E-01  3.60000000E-02
  7.50000000E-01  3.38650000E+01  5.09479000E+00  1.15879000E+00  3.25840000E-01
  1.02741000E-01  3.60000000E-02  7.50000000E-01  3.38650000E+01  5.09479000E+00
  1.15879000E+00  3.25840000E-01  1.02741000E-01  3.60000000E-02  7.50000000E-01
Contraction coefficients                   R   N=         120
  1.96665025E-03  1.52306019E-02  7.61269097E-02  2.60801033E-01  6.16462078E-01
  2.21006028E-01  1.14660081E-01  9.19999648E-01 -3.03068213E-03  1.00000000E+00
  1.00000000E+00  1.00000000E+00  1.00000000E+00  1.96665025E-03  1.52306019E-02
  7.61269097E-02  2.60801033E-01  6.16462078E-01  2.21006028E-01  1.14660081E-01
  9.19999648E-01 -3.03068213E-03  1.00000000E+00  1.00000000E+00  1.00000000E+00
  1.00000000E+00  1.96665025E-03  1.52306019E-02  7.61269097E-02  2.60801033E-01
  6.16462078E-01  2.21006028E-01  1.14660081E-01  9.19999648E-01 -3.03068213E-03
  1.00000000E+00  1.00000000E+00  1.00000000E+00  1.00000000E+00  1.96665025E-03
  1.52306019E-02  7.61269097E-02  2.60801033E-01  6.16462078E-01  2.21006028E-01
  1.14660081E-01  9.19999648E-01 -3.03068213E-03  1.00000000E+00  1.00000000E+00
  1.00000000E+00  1.00000000E+00  1.96665025E-03  1.52306019E-02  7.61269097E-02
  2.60801033E-01  6.16462078E-01  2.21006028E-01  1.14660081E-01  9.19999648E-01
 -3.03068213E-03  1.00000000E+00  1.00000000E+00  1.00000000E+00  1.00000000E+00
  1.96665025E-03  1.52306019E-02  7.61269097E-02  2.60801033E-01  6.16462078E-01
  2.21006028E-01  1.14660081E-01  9.19999648E-01 -3.03068213E-03  1.00000000E+00
  1.00000000E+00  1.00000000E+00  1.00000000E+00  2.54938145E-02  1.90373109E-01
  8.52161486E-01  1.00000000E+00  1.00000000E+00  1.00000000E+00  1.00000000E+00
  2.54938145E-02  1.90373109E-01  8.52161486E-01  1.00000000E+00  1.00000000E+00
  1.00000000E+00  1.00000000E+00  2.54938145E-02  1.90373109E-01  8.52161486E-01
  1.00000000E+00  1.00000000E+00  1.00000000E+00  1.00000000E+00  2.54938145E-02
  1.90373109E-01  8.52161486E-01  1.00000000E+00  1.00000000E+00  1.00000000E+00
  1.00000000E+00  2.54938145E-02  1.90373109E-01  8.52161486E-01  1.00000000E+00
  1.00000000E+00  1.00000000E+00  1.00000000E+00  2.54938145E-02  1.90373109E-01
  8.52161486E-01  1.00000000E+00  1.00000000E+00  1.00000000E+00  1.00000000E+00
P(S=P) Contraction coefficients            R   N=         120
  0.00000000E+00  0.00000000E+00  0.00000000E+00  0.00000000E+00  0.00000000E+00
  0.00000000E+00  4.02486927E-02  2.37593957E-01  8.15853851E-01  1.00000000E+00
  1.00000000E+00  1.00000000E+00  0.00000000E+00  0.00000000E+00  0.00000000E+00
  0.00000000E+00  0.00000000E+00  0.00000000E+00  0.00000000E+00  4.02486927E-02
  2.37593957E-01  8.15853851E-01  1.00000000E+00  1.00000000E+00  1.00000000E+00
  0.00000000E+00  0.00000000E+00  0.00000000E+00  0.00000000E+00  0.00000000E+00
  0.00000000E+00  0.00000000E+00  4.02486927E-02  2.37593957E-01  8.15853851E-01
  1.00000000E+00  1.00000000E+00  1.00000000E+00  0.00000000E+00  0.00000000E+00
  0.00000000E+00  0.00000000E+00  0.00000000E+00  0.00000000E+00  0.00000000E+00
  4.02486927E-02  2.37593957E-01  8.15853851E-01  1.00000000E+00  1.00000000E+00
  1.00000000E+00  0.00000000E+00  0.00000000E+00  0.00000000E+00  0.00000000E+00
  0.00000000E+00  0.00000000E+00  0.00000000E+00  4.02486927E-02  2.37593957E-01
  8.15853851E-01  1.00000000E+00  1.00000000E+00  1.00000000E+00  0.00000000E+00
  0.00000000E+00  0.00000000E+00  0.00000000E+00  0.00000000E+00  0.00000000E+00
  0.00000000E+00  4.02486927E-02  2.37593957E-01  8.15853851E-01  1.00000000E+00
  1.00000000E+00  1.00000000E+00  0.00000000E+00  0.00000000E+00  0.00000000E+00
  0.00000000E+00  0.00000000E+00  0.00000000E+00  0.00000000E+00  0.00000000E+00
  0.00000000E+00  0.00000000E+00  0.00000000E+00  0.00000000E+00  0.00000000E+00
  0.00000000E+00  0.00000000E+00  0.00000000E+00  0.00000000E+00  0.00000000E+00
  0.00000000E+00  0.00000000E+00  0.00000000E+00  0.00000000E+00  0.00000000E+00
  0.00000000E+00  0.00000000E+00  0.00000000E+00  0.00000000E+00  0.00000000E+00
  0.00000000E+00  0.00000000E+00  0.00000000E+00  0.00000000E+00  0.00000000E+00
  0.00000000E+00  0.00000000E+00  0.00000000E+00  0.00000000E+00  0.00000000E+00
  0.00000000E+00  0.00000000E+00  0.00000000E+00  0.00000000E+00  0.00000000E+00
Coordinates of each shell                  R   N=         198
  3.40190340E-03  2.63532109E+00 -3.83483024E-02  3.40190340E-03  2.63532109E+00
 -3.83483024E-02  3.40190340E-03  2.63532109E+00 -3.83483024E-02  3.40190340E-03
  2.63532109E+00 -3.83483024E-02  3.40190340E-03  2.63532109E+00 -3.83483024E-02
  3.40190340E-03  2.63532109E+00 -3.83483024E-02 -2.28089925E+00  1.31978085E+00
 -3.83483024E-02 -2.28089925E+00  1.31978085E+00 -3.83483024E-02 -2.28089925E+00
  1.31978085E+00 -3.83483024E-02 -2.28089925E+00  1.31978085E+00 -3.83483024E-02
 -2.28089925E+00  1.31978085E+00 -3.83483024E-02 -2.28089925E+00  1.31978085E+00
 -3.83483024E-02 -2.28089925E+00 -1.31349747E+00  7.66018485E-02 -2.28089925E+00
 -1.31349747E+00  7.66018485E-02 -2.28089925E+00 -1.31349747E+00  7.66018485E-02
 -2.28089925E+00 -1.31349747E+00  7.66018485E-02 -2.28089925E+00 -1.31349747E+00
  7.66018485E-02 -2.28089925E+00 -1.31349747E+00  7.66018485E-02 -3.40190340E-03
 -2.63532109E+00 -3.83483024E-02 -3.40190340E-03 -2.63532109E+00 -3.83483024E-02
 -3.40190340E-03 -2.63532109E+00 -3.83483024E-02 -3.40190340E-03 -2.63532109E+00
 -3.83483024E-02 -3.40190340E-03 -2.63532109E+00 -3.83483024E-02 -3.40190340E-03
 -2.63532109E+00 -3.83483024E-02  2.28089925E+00 -1.31978085E+00 -3.83483024E-02
  2.28089925E+00 -1.31978085E+00 -3.83483024E-02  2.28089925E+00 -1.31978085E+00
 -3.83483024E-02  2.28089925E+00 -1.31978085E+00 -3.83483024E-02  2.28089925E+00
 -1.31978085E+00 -3.83483024E-02  2.28089925E+00 -1.31978085E+00 -3.83483024E-02
  2.28089925E+00  1.31349747E+00  7.66018485E-02  2.28089925E+00  1.31349747E+00
  7.66018485E-02  2.28089925E+00  1.31349747E+00  7.66018485E-02  2.28089925E+00
  1.31349747E+00  7.66018485E-02  2.28089925E+00  1.31349747E+00  7.66018485E-02
  2.28089925E+00  1.31349747E+00  7.66018485E-02  7.03457012E-03  4.68434836E+00
 -6.49839922E-02  7.03457012E-03  4.68434836E+00 -6.49839922E-02  7.03457012E-03
  4.68434836E+00 -6.49839922E-02  7.03457012E-03  4.68434836E+00 -6.49839922E-02
  7.03457012E-03  4.68434836E+00 -6.49839922E-02 -4.05497407E+00  2.34507631E+00
 -6.52504436E-02 -4.05497407E+00  2.34507631E+00 -6.52504436E-02 -4.05497407E+00
  2.34507631E+00 -6.52504436E-02 -4.05497407E+00  2.34507631E+00 -6.52504436E-02
 -4.05497407E+00  2.34507631E+00 -6.52504436E-02 -4.05625243E+00 -2.33580517E+00
  1.30802973E-01 -4.05625243E+00 -2.33580517E+00  1.30802973E-01 -4.05625243E+00
 -2.33580517E+00  1.30802973E-01 -4.05625243E+00 -2.33580517E+00  1.30802973E-01
 -4.05625243E+00 -2.33580517E+00  1.30802973E-01 -7.03457012E-03 -4.68434836E+00
 -6.49839922E-02 -7.03457012E-03 -4.68434836E+00 -6.49839922E-02 -7.03457012E-03
 -4.68434836E+00 -6.49839922E-02 -7.03457012E-03 -4.68434836E+00 -6.49839922E-02
 -7.03457012E-03 -4.68434836E+00 -6.49839922E-02  4.05497407E+00 -2.34507631E+00
 -6.52504436E-02  4.05497407E+00 -2.34507631E+00 -6.52504436E-02  4.05497407E+00
 -2.34507631E+00 -6.52504436E-02  4.05497407E+00 -2.34507631E+00 -6.52504436E-02
  4.05497407E+00 -2.34507631E+00 -6.52504436E-02  4.05625243E+00  2.33580517E+00
  1.30802973E-01  4.05625243E+00  2.33580517E+00  1.30802973E-01  4.05625243E+00
  2.33580517E+00  1.30802973E-01  4.05625243E+00  2.33580517E+00  1.30802973E-01
  4.05625243E+00  2.33580517E+00  1.30802973E-01
Constraint Structure                       R   N=          36
  3.40190340E-03  2.63532109E+00 -3.83483024E-02 -2.28089925E+00  1.31978085E+00
 -3.83483024E-02 -2.28089925E+00 -1.31349747E+00  7.66018485E-02 -3.40190340E-03
 -2.63532109E+00 -3.83483024E-02  2.28089925E+00 -1.31978085E+00 -3.83483024E-02
  2.28089925E+00  1.31349747E+00  7.66018485E-02  7.03457012E-03  4.68434836E+00
 -6.49839922E-02 -4.05497407E+00  2.34507631E+00 -6.52504436E-02 -4.05625243E+00
 -2.33580517E+00  1.30802973E-01 -7.03457012E-03 -4.68434836E+00 -6.49839922E-02
  4.05497407E+00 -2.34507631E+00 -6.52504436E-02  4.05625243E+00  2.33580517E+00
  1.30802973E-01
Num ILSW                                   I              100
ILSW                                       I   N=         100
           0           0           0           0           2           0
           0           0           0           0           0          -1
           0           0           0           0           0           0
           0           0           0           0           0           0
           1           0           0           0           0           0
           0           0      100000           0          -1           0
           0           0           0           0           0           0
           0           0           0           1           0           0
           0           0           1           0           0           0
           0           0           4          40           0           0
           0           0           0           0           0           0
           0           0           0           0           0           0
           0           0           0           0           0           0
           0           0           0           0           0           0
           0           0           0           0           0           0
           0           0           0           0           0           0
           0           0           0           0
Num RLSW                                   I               40
RLSW                                       R   N=          40
  1.00000000E+00  1.00000000E+00  1.00000000E+00  1.00000000E+00  1.00000000E+00
  0.00000000E+00  0.00000000E+00  1.00000000E+00  0.00000000E+00  0.00000000E+00
  0.00000000E+00  0.00000000E+00  1.00000000E+00  0.00000000E+00  0.00000000E+00
  0.00000000E+00  0.00000000E+00  1.00000000E+00  0.00000000E+00  0.00000000E+00
  0.00000000E+00  0.00000000E+00  1.00000000E+00  0.00000000E+00  0.00000000E+00
  0.00000000E+00  0.00000000E+00  1.00000000E+00  0.00000000E+00  0.00000000E+00
  0.00000000E+00  0.00000000E+00  0.00000000E+00  0.00000000E+00  0.00000000E+00
  0.00000000E+00  0.00000000E+00  0.00000000E+00  1.00000000E+00  1.00000000E+00
MxBond                                     I                3
NBond                                      I   N=          12
           3           3           3           3           3           3
           1           1           1           1           1           1
IBond                                      I   N=          36
           2           6           7           1           3           8
           2           4           9           3           5          10
           4           6          11           1           5          12
           1           0           0           2           0           0
           3           0           0           4           0           0
           5           0           0           6           0           0
RBond                                      R   N=          36
  1.50000000E+00  1.50000000E+00  1.00000000E+00  1.50000000E+00  1.50000000E+00
  1.00000000E+00  1.50000000E+00  1.50000000E+00  1.00000000E+00  1.50000000E+00
  1.50000000E+00  1.00000000E+00  1.50000000E+00  1.50000000E+00  1.00000000E+00
  1.50000000E+00  1.50000000E+00  1.00000000E+00  1.00000000E+00  0.00000000E+00
  0.00000000E+00  1.00000000E+00  0.00000000E+00  0.00000000E+00  1.00000000E+00
  0.00000000E+00  0.00000000E+00  1.00000000E+00  0.00000000E+00  0.00000000E+00
  1.00000000E+00  0.00000000E+00  0.00000000E+00  1.00000000E+00  0.00000000E+00
  0.00000000E+00
Virial Ratio                               R      2.001294359720006E+00
SCF Energy                                 R     -2.307550196842590E+02
MP2 Energy                                 R     -2.315833890096018E+02
Total Energy                               R     -2.315833890096018E+02
Post-SCF wavefunction norm                 R      1.143480035522786E+00
RMS Density                                R      3.057913118056601E-09
External E-field                           R   N=          35
  0.00000000E+00  0.00000000E+00  0.00000000E+00  0.00000000E+00  0.00000000E+00
  0.00000000E+00  0.00000000E+00  0.00000000E+00  0.00000000E+00  0.00000000E+00
  0.00000000E+00  0.00000000E+00  0.00000000E+00  0.00000000E+00  0.00000000E+00
  0.00000000E+00  0.00000000E+00  0.00000000E+00  0.00000000E+00  0.00000000E+00
  0.00000000E+00  0.00000000E+00  0.00000000E+00  0.00000000E+00  0.00000000E+00
  0.00000000E+00  0.00000000E+00  0.00000000E+00  0.00000000E+00  0.00000000E+00
  0.00000000E+00  0.00000000E+00  0.00000000E+00  0.00000000E+00  0.00000000E+00
IOpCl                                      I                0
IROHF                                      I                0
Alpha Orbital Energies                     R   N=         173
 -1.12391239E+01 -1.12385761E+01 -1.12385316E+01 -1.12373470E+01 -1.12373005E+01
 -1.12367207E+01 -1.15226099E+00 -1.01630852E+00 -1.01627415E+00 -8.25078025E-01
 -8.25066778E-01 -7.10635663E-01 -6.44565841E-01 -6.20489520E-01 -5.89586345E-01
 -5.89306349E-01 -5.03039925E-01 -4.96177835E-01 -4.94921859E-01 -3.36844021E-01
 -3.36817025E-01  4.20953360E-02  4.89718848E-02  4.90586448E-02  6.62530249E-02
  6.71980608E-02  9.77628710E-02  1.08318738E-01  1.09210521E-01  1.27608890E-01
  1.52502654E-01  1.52712709E-01  1.58780154E-01  1.62919235E-01  1.81090072E-01
  1.82484370E-01  1.83289776E-01  1.83749754E-01  1.92446656E-01  2.06594257E-01
  2.12006387E-01  2.12233554E-01  2.16205128E-01  2.16424748E-01  2.28385243E-01
  2.31400901E-01  2.47990665E-01  2.48186197E-01  2.50139633E-01  2.80954823E-01
  2.88832363E-01  3.00108230E-01  3.34520019E-01  3.66567081E-01  4.06942981E-01
  4.08721554E-01  4.10216062E-01  4.22281408E-01  4.29792179E-01  4.89147868E-01
  4.98230936E-01  5.08038640E-01  5.09009902E-01  6.04168870E-01  6.09000434E-01
  7.14181564E-01  7.17171084E-01  7.22960581E-01  7.24224616E-01  7.47477304E-01
  7.50153309E-01  7.50870342E-01  7.57701887E-01  7.57905568E-01  7.97382333E-01
  8.19523189E-01  8.19868894E-01  8.73942309E-01  8.84967600E-01  9.37062850E-01
  9.39766499E-01  9.42246136E-01  9.51004505E-01  9.75430110E-01  1.00199195E+00
  1.00664547E+00  1.01538687E+00  1.05889247E+00  1.10100625E+00  1.11998786E+00
  1.12136634E+00  1.12746060E+00  1.15152003E+00  1.21663782E+00  1.25746453E+00
  1.26698371E+00  1.29880204E+00  1.32375803E+00  1.39154996E+00  1.39377279E+00
  1.50858886E+00  1.55605422E+00  1.71159932E+00  1.78400633E+00  1.78541008E+00
  1.79578762E+00  1.82569300E+00  1.84442772E+00  1.84539030E+00  1.90576233E+00
  1.90739783E+00  1.93013935E+00  1.93240050E+00  1.99145886E+00  2.05423725E+00
  2.05434384E+00  2.10183054E+00  2.10277054E+00  2.12838013E+00  2.21513678E+00
  2.21895710E+00  2.23207231E+00  2.26769894E+00  2.27020803E+00  2.29582487E+00
  2.34189055E+00  2.34387716E+00  2.37901569E+00  2.38038395E+00  2.63561240E+00
  2.65721381E+00  2.73496575E+00  2.74225224E+00  2.74279768E+00  2.81382420E+00
  2.81496131E+00  2.94798326E+00  2.95722832E+00  2.95898609E+00  2.98854863E+00
  3.02072962E+00  3.02290676E+00  3.02381239E+00  3.02766192E+00  3.04696514E+00
  3.06573436E+00  3.19041976E+00  3.19664753E+00  3.25010725E+00  3.29289642E+00
  3.30145371E+00  3.32153679E+00  3.32750069E+00  3.48114490E+00  3.54657452E+00
  3.76979707E+00  3.77426567E+00  3.90317165E+00  3.90431371E+00  3.91868639E+00
  4.06574572E+00  4.40088570E+00  4.40661605E+00  4.48758706E+00  4.57008909E+00
  4.57582768E+00  5.26558978E+00  2.47472062E+01  2.51333736E+01  2.51344740E+01
  2.52557424E+01  2.52567334E+01  2.53562648E+01
Alpha MO coefficients                      R   N=       30102
  2.32894279E-01  1.92834062E-01 -3.02369760E-06 -3.02683345E-05  3.46131179E-06
  2.04732898E-03 -2.28749451E-06 -1.83836782E-04  7.77149268E-06 -3.93474624E-04
  2.75860926E-06  1.35825671E-05 -7.35418269E-06 -7.47353145E-05 -7.92058181E-06
 -2.20200764E-04  2.92710810E-05 -1.19001898E-04  3.16197395E-06 -4.06131986E-06
  6.44782326E-05  6.48418143E-07  2.32574341E-01  1.92569044E-01  2.78606595E-05
 -1.25591364E-05  3.45494808E-06  2.04507869E-03  1.60116696E-04 -9.01826990E-05
  7.75727618E-06 -3.93129579E-04 -1.29834997E-05  4.30296038E-06 -7.32855522E-06
 -7.82742774E-05  1.93142244E-04 -1.03002587E-04  2.93010102E-05 -1.18718825E-04
  1.93436865E-06 -4.76243164E-06 -3.14040880E-05  5.63234455E-05  2.24151061E-01
  1.85591721E-01  2.88984972E-05  1.65261328E-05 -7.14495972E-06  1.98644212E-03
  1.57942724E-04  9.08620501E-05 -1.52250450E-05 -3.93693621E-04 -1.01595455E-05
 -5.83588698E-06  1.50184412E-05 -1.52527593E-04  1.34259820E-04  7.73640983E-05
 -5.63075901E-05 -1.10721717E-04 -6.63746540E-06 -3.82771352E-06 -3.23466632E-05
 -5.57892524E-05  2.32894279E-01  1.92834062E-01  3.02369760E-06  3.02683345E-05
  3.46131179E-06  2.04732898E-03  2.28749451E-06  1.83836782E-04  7.77149268E-06
 -3.93474624E-04 -2.75860926E-06 -1.35825671E-05 -7.35418269E-06 -7.47353145E-05
  7.92058181E-06  2.20200764E-04  2.92710810E-05 -1.19001898E-04 -3.16197395E-06
  4.06131986E-06  6.44782326E-05  6.48418143E-07  2.32574341E-01  1.92569044E-01
 -2.78606595E-05  1.25591364E-05  3.45494808E-06  2.04507869E-03 -1.60116696E-04
  9.01826990E-05  7.75727618E-06 -3.93129579E-04  1.29834997E-05 -4.30296038E-06
 -7.32855522E-06 -7.82742774E-05 -1.93142244E-04  1.03002587E-04  2.93010102E-05
 -1.18718825E-04 -1.93436865E-06  4.76243164E-06 -3.14040880E-05  5.63234455E-05
  2.24151061E-01  1.85591721E-01 -2.88984972E-05 -1.65261328E-05 -7.14495972E-06
  1.98644212E-03 -1.57942724E-04 -9.08620501E-05 -1.52250450E-05 -3.93693621E-04
  1.01595455E-05  5.83588698E-06  1.50184412E-05 -1.52527593E-04 -1.34259820E-04
 -7.73640983E-05 -5.63075901E-05 -1.10721717E-04  6.63746540E-06  3.82771352E-06
 -3.23466632E-05 -5.57892524E-05  1.79734453E-04 -1.85671534E-05  2.52391913E-04
  1.03069717E-04 -4.66483241E-07 -3.09737632E-05  1.06653711E-06  1.79500746E-04
 -1.84096112E-05  2.52142423E-04  1.02539885E-04  2.70433449E-05 -1.51440889E-05
  1.07317191E-06  1.73135529E-04 -1.19644487E-05  2.37838780E-04  7.42681896E-05
  2.74975976E-05  1.58265110E-05 -2.26601428E-06  1.79734453E-04 -1.85671534E-05
  2.52391913E-04  1.03069717E-04  4.66483241E-07  3.09737632E-05  1.06653711E-06
  1.79500746E-04 -1.84096112E-05  2.52142423E-04  1.02539885E-04 -2.70433449E-05
  1.51440889E-05  1.07317191E-06  1.73135529E-04 -1.19644487E-05  2.37838780E-04
  7.42681896E-05 -2.74975976E-05 -1.58265110E-05 -2.26601428E-06  2.84393140E-01
  2.35509576E-01 -9.04892007E-05 -5.13548792E-06  1.70015319E-06  2.32850621E-03
 -7.17393090E-05 -1.22273914E-04  2.60563825E-06 -2.99951359E-04  1.05266605E-04
 -1.29601021E-05  5.09306387E-06 -1.13227622E-03 -5.12909359E-04 -1.01974482E-03
 -1.72818940E-05 -1.69950509E-04  5.64913924E-06 -3.21719851E-06  7.54467029E-05
  5.15085301E-05  2.78769212E-01  2.30852211E-01  5.25841310E-05  8.00890634E-05
  1.57554048E-06  2.28300484E-03  1.41787631E-04  5.45861856E-06  2.24271421E-06
 -2.92484519E-04 -4.38364621E-05 -1.03346571E-04  5.89981277E-06 -1.10961717E-03
  1.13822776E-03 -3.14667554E-05 -2.05316068E-05 -1.66447963E-04 -2.19570218E-07
 -6.30369537E-06  1.04767540E-05  9.14707406E-05 -5.05565163E-03 -4.18658685E-03
 -9.29584480E-05  1.60994482E-04  1.10929706E-07 -4.17026844E-05 -7.56429272E-05
  1.26960543E-04  2.29140351E-07  4.59966948E-06  1.07832033E-04 -1.89027230E-04
 -1.98018044E-07  2.26225785E-05 -5.43482074E-04  9.05862307E-04  1.08288472E-06
  2.93937061E-06 -7.65106156E-07  1.71905257E-06 -9.13001744E-05  5.46891248E-05
 -2.84393140E-01 -2.35509576E-01 -9.04892007E-05 -5.13548792E-06 -1.70015319E-06
 -2.32850621E-03 -7.17393090E-05 -1.22273914E-04 -2.60563825E-06  2.99951359E-04
  1.05266605E-04 -1.29601021E-05 -5.09306387E-06  1.13227622E-03 -5.12909359E-04
 -1.01974482E-03  1.72818940E-05  1.69950509E-04  5.64913924E-06 -3.21719851E-06
 -7.54467029E-05 -5.15085301E-05 -2.78769212E-01 -2.30852211E-01  5.25841310E-05
  8.00890634E-05 -1.57554048E-06 -2.28300484E-03  1.41787631E-04  5.45861856E-06
 -2.24271421E-06  2.92484519E-04 -4.38364621E-05 -1.03346571E-04 -5.89981277E-06
  1.10961717E-03  1.13822776E-03 -3.14667554E-05  2.05316068E-05  1.66447963E-04
 -2.19570218E-07 -6.30369537E-06 -1.04767540E-05 -9.14707406E-05  5.05565163E-03
  4.18658685E-03 -9.29584480E-05  1.60994482E-04 -1.10929706E-07  4.17026844E-05
 -7.56429272E-05  1.26960543E-04 -2.29140351E-07 -4.59966948E-06  1.07832033E-04