CH-                                                                     
SP        RMP2-FC                                                     6-311++G(d,p)       
Number of atoms                            I               10
Info1-9                                    I   N=           9
          23          19           0           0           0         110
           1           2           1
Charge                                     I                0
Multiplicity                               I                1
Number of electrons                        I               36
Number of alpha electrons                  I               18
Number of beta electrons                   I               18
Number of basis functions                  I              145
Number of independent functions            I              145
Number of point charges in /Mol/           I                0
Number of translation vectors              I                0
Atomic numbers                             I   N=          10
           6           6           6           6           7           1
           1           1           1           1
Nuclear charges                            R   N=          10
  6.00000000E+00  6.00000000E+00  6.00000000E+00  6.00000000E+00  7.00000000E+00
  1.00000000E+00  1.00000000E+00  1.00000000E+00  1.00000000E+00  1.00000000E+00
Current cartesian coordinates              R   N=          30
 -2.56071768E-16  2.12572647E+00  6.25833832E-01  2.51650579E-16  1.34620688E+00
 -1.85638947E+00  2.65513016E-16 -1.34620688E+00 -1.85638947E+00 -2.34182302E-16
 -2.12572647E+00  6.25833832E-01 -3.89338531E-16 -1.23358114E-17  2.11946014E+00
 -7.38569520E-16 -1.23358114E-17  4.02058510E+00 -5.29909619E-16  3.99142285E+00
  1.44234670E+00  4.70100383E-16  2.56892394E+00 -3.48741777E+00  4.96553633E-16
 -2.56892394E+00 -3.48741777E+00 -4.88808321E-16 -3.99142285E+00  1.44234670E+00
Force Field                                I                0
Int Atom Types                             I   N=          10
           0           0           0           0           0           0
           0           0           0           0
MM charges                                 R   N=          10
  0.00000000E+00  0.00000000E+00  0.00000000E+00  0.00000000E+00  0.00000000E+00
  0.00000000E+00  0.00000000E+00  0.00000000E+00  0.00000000E+00  0.00000000E+00
Integer atomic weights                     I   N=          10
          12          12          12          12          14           1
           1           1           1           1
Real atomic weights                        R   N=          10
  1.20000000E+01  1.20000000E+01  1.20000000E+01  1.20000000E+01  1.40030740E+01
  1.00782504E+00  1.00782504E+00  1.00782504E+00  1.00782504E+00  1.00782504E+00
Atom fragment info                         I   N=          10
           0           0           0           0           0           0
           0           0           0           0
Atom residue num                           I   N=          10
           0           0           0           0           0           0
           0           0           0           0
Nuclear spins                              I   N=          10
           0           0           0           0           2           1
           1           1           1           1
Nuclear ZEff                               R   N=          10
 -3.60000000E+00 -3.60000000E+00 -3.60000000E+00 -3.60000000E+00 -4.55000000E+00
 -1.00000000E+00 -1.00000000E+00 -1.00000000E+00 -1.00000000E+00 -1.00000000E+00
Nuclear QMom                               R   N=          10
  0.00000000E+00  0.00000000E+00  0.00000000E+00  0.00000000E+00  2.04400000E+00
  0.00000000E+00  0.00000000E+00  0.00000000E+00  0.00000000E+00  0.00000000E+00
Nuclear GFac                               R   N=          10
  0.00000000E+00  0.00000000E+00  0.00000000E+00  0.00000000E+00  4.03761000E-01
  2.79284600E+00  2.79284600E+00  2.79284600E+00  2.79284600E+00  2.79284600E+00
MicOpt                                     I   N=          10
          -1          -1          -1          -1          -1          -1
          -1          -1          -1          -1
Number of contracted shells                I               55
Number of primitive shells                 I              100
Pure/Cartesian d shells                    I                0
Pure/Cartesian f shells                    I                0
Highest angular momentum                   I                2
Largest degree of contraction              I                6
Shell types                                I   N=          55
           0          -1          -1          -1          -1          -2
           0          -1          -1          -1          -1          -2
           0          -1          -1          -1          -1          -2
           0          -1          -1          -1          -1          -2
           0          -1          -1          -1          -1          -2
           0           0           0           0           1           0
           0           0           0           1           0           0
           0           0           1           0           0           0
           0           1           0           0           0           0
           1
Number of primitives per shell             I   N=          55
           6           3           1           1           1           1
           6           3           1           1           1           1
           6           3           1           1           1           1
           6           3           1           1           1           1
           6           3           1           1           1           1
           3           1           1           1           1           3
           1           1           1           1           3           1
           1           1           1           3           1           1
           1           1           3           1           1           1
           1
Shell to atom map                          I   N=          55
           1           1           1           1           1           1
           2           2           2           2           2           2
           3           3           3           3           3           3
           4           4           4           4           4           4
           5           5           5           5           5           5
           6           6           6           6           6           7
           7           7           7           7           8           8
           8           8           8           9           9           9
           9           9          10          10          10          10
          10
Primitive exponents                        R   N=         100
  4.56324000E+03  6.82024000E+02  1.54973000E+02  4.44553000E+01  1.30290000E+01
  1.82773000E+00  2.09642000E+01  4.80331000E+00  1.45933000E+00  4.83456000E-01
  1.45585000E-01  4.38000000E-02  6.26000000E-01  4.56324000E+03  6.82024000E+02
  1.54973000E+02  4.44553000E+01  1.30290000E+01  1.82773000E+00  2.09642000E+01
  4.80331000E+00  1.45933000E+00  4.83456000E-01  1.45585000E-01  4.38000000E-02
  6.26000000E-01  4.56324000E+03  6.82024000E+02  1.54973000E+02  4.44553000E+01
  1.30290000E+01  1.82773000E+00  2.09642000E+01  4.80331000E+00  1.45933000E+00
  4.83456000E-01  1.45585000E-01  4.38000000E-02  6.26000000E-01  4.56324000E+03
  6.82024000E+02  1.54973000E+02  4.44553000E+01  1.30290000E+01  1.82773000E+00
  2.09642000E+01  4.80331000E+00  1.45933000E+00  4.83456000E-01  1.45585000E-01
  4.38000000E-02  6.26000000E-01  6.29348000E+03  9.49044000E+02  2.18776000E+02
  6.36916000E+01  1.88282000E+01  2.72023000E+00  3.06331000E+01  7.02614000E+00
  2.11205000E+00  6.84009000E-01  2.00878000E-01  6.39000000E-02  9.13000000E-01
  3.38650000E+01  5.09479000E+00  1.15879000E+00  3.25840000E-01  1.02741000E-01
  3.60000000E-02  7.50000000E-01  3.38650000E+01  5.09479000E+00  1.15879000E+00
  3.25840000E-01  1.02741000E-01  3.60000000E-02  7.50000000E-01  3.38650000E+01
  5.09479000E+00  1.15879000E+00  3.25840000E-01  1.02741000E-01  3.60000000E-02
  7.50000000E-01  3.38650000E+01  5.09479000E+00  1.15879000E+00  3.25840000E-01
  1.02741000E-01  3.60000000E-02  7.50000000E-01  3.38650000E+01  5.09479000E+00
  1.15879000E+00  3.25840000E-01  1.02741000E-01  3.60000000E-02  7.50000000E-01
Contraction coefficients                   R   N=         100
  1.96665025E-03  1.52306019E-02  7.61269097E-02  2.60801033E-01  6.16462078E-01
  2.21006028E-01  1.14660081E-01  9.19999648E-01 -3.03068213E-03  1.00000000E+00
  1.00000000E+00  1.00000000E+00  1.00000000E+00  1.96665025E-03  1.52306019E-02
  7.61269097E-02  2.60801033E-01  6.16462078E-01  2.21006028E-01  1.14660081E-01
  9.19999648E-01 -3.03068213E-03  1.00000000E+00  1.00000000E+00  1.00000000E+00
  1.00000000E+00  1.96665025E-03  1.52306019E-02  7.61269097E-02  2.60801033E-01
  6.16462078E-01  2.21006028E-01  1.14660081E-01  9.19999648E-01 -3.03068213E-03
  1.00000000E+00  1.00000000E+00  1.00000000E+00  1.00000000E+00  1.96665025E-03
  1.52306019E-02  7.61269097E-02  2.60801033E-01  6.16462078E-01  2.21006028E-01
  1.14660081E-01  9.19999648E-01 -3.03068213E-03  1.00000000E+00  1.00000000E+00
  1.00000000E+00  1.00000000E+00  1.96978815E-03  1.49612859E-02  7.35005308E-02
  2.48936766E-01  6.02459433E-01  2.56201759E-01  1.11906080E-01  9.21666655E-01
 -2.56919183E-03  1.00000000E+00  1.00000000E+00  1.00000000E+00  1.00000000E+00
  2.54938145E-02  1.90373109E-01  8.52161486E-01  1.00000000E+00  1.00000000E+00
  1.00000000E+00  1.00000000E+00  2.54938145E-02  1.90373109E-01  8.52161486E-01
  1.00000000E+00  1.00000000E+00  1.00000000E+00  1.00000000E+00  2.54938145E-02
  1.90373109E-01  8.52161486E-01  1.00000000E+00  1.00000000E+00  1.00000000E+00
  1.00000000E+00  2.54938145E-02  1.90373109E-01  8.52161486E-01  1.00000000E+00
  1.00000000E+00  1.00000000E+00  1.00000000E+00  2.54938145E-02  1.90373109E-01
  8.52161486E-01  1.00000000E+00  1.00000000E+00  1.00000000E+00  1.00000000E+00
P(S=P) Contraction coefficients            R   N=         100
  0.00000000E+00  0.00000000E+00  0.00000000E+00  0.00000000E+00  0.00000000E+00
  0.00000000E+00  4.02486927E-02  2.37593957E-01  8.15853851E-01  1.00000000E+00
  1.00000000E+00  1.00000000E+00  0.00000000E+00  0.00000000E+00  0.00000000E+00
  0.00000000E+00  0.00000000E+00  0.00000000E+00  0.00000000E+00  4.02486927E-02
  2.37593957E-01  8.15853851E-01  1.00000000E+00  1.00000000E+00  1.00000000E+00
  0.00000000E+00  0.00000000E+00  0.00000000E+00  0.00000000E+00  0.00000000E+00
  0.00000000E+00  0.00000000E+00  4.02486927E-02  2.37593957E-01  8.15853851E-01
  1.00000000E+00  1.00000000E+00  1.00000000E+00  0.00000000E+00  0.00000000E+00
  0.00000000E+00  0.00000000E+00  0.00000000E+00  0.00000000E+00  0.00000000E+00
  4.02486927E-02  2.37593957E-01  8.15853851E-01  1.00000000E+00  1.00000000E+00
  1.00000000E+00  0.00000000E+00  0.00000000E+00  0.00000000E+00  0.00000000E+00
  0.00000000E+00  0.00000000E+00  0.00000000E+00  3.83119186E-02  2.37403116E-01
  8.17592398E-01  1.00000000E+00  1.00000000E+00  1.00000000E+00  0.00000000E+00
  0.00000000E+00  0.00000000E+00  0.00000000E+00  0.00000000E+00  0.00000000E+00
  0.00000000E+00  0.00000000E+00  0.00000000E+00  0.00000000E+00  0.00000000E+00
  0.00000000E+00  0.00000000E+00  0.00000000E+00  0.00000000E+00  0.00000000E+00
  0.00000000E+00  0.00000000E+00  0.00000000E+00  0.00000000E+00  0.00000000E+00
  0.00000000E+00  0.00000000E+00  0.00000000E+00  0.00000000E+00  0.00000000E+00
  0.00000000E+00  0.00000000E+00  0.00000000E+00  0.00000000E+00  0.00000000E+00
  0.00000000E+00  0.00000000E+00  0.00000000E+00  0.00000000E+00  0.00000000E+00
Coordinates of each shell                  R   N=         165
  0.00000000E+00  2.12572647E+00  6.25833936E-01  0.00000000E+00  2.12572647E+00
  6.25833936E-01  0.00000000E+00  2.12572647E+00  6.25833936E-01  0.00000000E+00
  2.12572647E+00  6.25833936E-01  0.00000000E+00  2.12572647E+00  6.25833936E-01
  0.00000000E+00  2.12572647E+00  6.25833936E-01  0.00000000E+00  1.34620688E+00
 -1.85638937E+00  0.00000000E+00  1.34620688E+00 -1.85638937E+00  0.00000000E+00
  1.34620688E+00 -1.85638937E+00  0.00000000E+00  1.34620688E+00 -1.85638937E+00
  0.00000000E+00  1.34620688E+00 -1.85638937E+00  0.00000000E+00  1.34620688E+00
 -1.85638937E+00 -1.64862795E-16 -1.34620688E+00 -1.85638937E+00 -1.64862795E-16
 -1.34620688E+00 -1.85638937E+00 -1.64862795E-16 -1.34620688E+00 -1.85638937E+00
 -1.64862795E-16 -1.34620688E+00 -1.85638937E+00 -1.64862795E-16 -1.34620688E+00
 -1.85638937E+00 -1.64862795E-16 -1.34620688E+00 -1.85638937E+00 -2.60326412E-16
 -2.12572647E+00  6.25833936E-01 -2.60326412E-16 -2.12572647E+00  6.25833936E-01
 -2.60326412E-16 -2.12572647E+00  6.25833936E-01 -2.60326412E-16 -2.12572647E+00
  6.25833936E-01 -2.60326412E-16 -2.12572647E+00  6.25833936E-01 -2.60326412E-16
 -2.12572647E+00  6.25833936E-01  0.00000000E+00  0.00000000E+00  2.11946024E+00
  0.00000000E+00  0.00000000E+00  2.11946024E+00  0.00000000E+00  0.00000000E+00
  2.11946024E+00  0.00000000E+00  0.00000000E+00  2.11946024E+00  0.00000000E+00
  0.00000000E+00  2.11946024E+00  0.00000000E+00  0.00000000E+00  2.11946024E+00
  0.00000000E+00  0.00000000E+00  4.02058520E+00  0.00000000E+00  0.00000000E+00
  4.02058520E+00  0.00000000E+00  0.00000000E+00  4.02058520E+00  0.00000000E+00
  0.00000000E+00  4.02058520E+00  0.00000000E+00  0.00000000E+00  4.02058520E+00
  0.00000000E+00  3.99142285E+00  1.44234680E+00  0.00000000E+00  3.99142285E+00
  1.44234680E+00  0.00000000E+00  3.99142285E+00  1.44234680E+00  0.00000000E+00
  3.99142285E+00  1.44234680E+00  0.00000000E+00  3.99142285E+00  1.44234680E+00
  0.00000000E+00  2.56892394E+00 -3.48741766E+00  0.00000000E+00  2.56892394E+00
 -3.48741766E+00  0.00000000E+00  2.56892394E+00 -3.48741766E+00  0.00000000E+00
  2.56892394E+00 -3.48741766E+00  0.00000000E+00  2.56892394E+00 -3.48741766E+00
 -3.14602448E-16 -2.56892394E+00 -3.48741766E+00 -3.14602448E-16 -2.56892394E+00
 -3.48741766E+00 -3.14602448E-16 -2.56892394E+00 -3.48741766E+00 -3.14602448E-16
 -2.56892394E+00 -3.48741766E+00 -3.14602448E-16 -2.56892394E+00 -3.48741766E+00
 -4.88808321E-16 -3.99142285E+00  1.44234680E+00 -4.88808321E-16 -3.99142285E+00
  1.44234680E+00 -4.88808321E-16 -3.99142285E+00  1.44234680E+00 -4.88808321E-16
 -3.99142285E+00  1.44234680E+00 -4.88808321E-16 -3.99142285E+00  1.44234680E+00
Constraint Structure                       R   N=          30
  0.00000000E+00  2.12572647E+00  6.25833936E-01  0.00000000E+00  1.34620688E+00
 -1.85638937E+00 -1.64862795E-16 -1.34620688E+00 -1.85638937E+00 -2.60326412E-16
 -2.12572647E+00  6.25833936E-01  0.00000000E+00  0.00000000E+00  2.11946024E+00
  0.00000000E+00  0.00000000E+00  4.02058520E+00  0.00000000E+00  3.99142285E+00
  1.44234680E+00  0.00000000E+00  2.56892394E+00 -3.48741766E+00 -3.14602448E-16
 -2.56892394E+00 -3.48741766E+00 -4.88808321E-16 -3.99142285E+00  1.44234680E+00
Num ILSW                                   I              100
ILSW                                       I   N=         100
           0           0           0           0           2           0
           0           0           0           0           0          -1
           0           0           0           0           0           0
           0           0           0           0           0           0
           1           0           0           0           0           0
           0           0      100000           0          -1           0
           0           0           0           0           0           0
           0           0           0           1           0           0
           0           0           1           0           0           0
           0           0           4          40           0           0
           0           0           0           0           0           0
           0           0           0           0           0           0
           0           0           0           0           0           0
           0           0           0           0           0           0
           0           0           0           0           0           0
           0           0           0           0           0           0
           0           0           0           0
Num RLSW                                   I               40
RLSW                                       R   N=          40
  1.00000000E+00  1.00000000E+00  1.00000000E+00  1.00000000E+00  1.00000000E+00
  0.00000000E+00  0.00000000E+00  1.00000000E+00  0.00000000E+00  0.00000000E+00
  0.00000000E+00  0.00000000E+00  1.00000000E+00  0.00000000E+00  0.00000000E+00
  0.00000000E+00  0.00000000E+00  1.00000000E+00  0.00000000E+00  0.00000000E+00
  0.00000000E+00  0.00000000E+00  1.00000000E+00  0.00000000E+00  0.00000000E+00
  0.00000000E+00  0.00000000E+00  1.00000000E+00  0.00000000E+00  0.00000000E+00
  0.00000000E+00  0.00000000E+00  0.00000000E+00  0.00000000E+00  0.00000000E+00
  0.00000000E+00  0.00000000E+00  0.00000000E+00  1.00000000E+00  1.00000000E+00
MxBond                                     I                3
NBond                                      I   N=          10
           3           3           3           3           3           1
           1           1           1           1
IBond                                      I   N=          30
           2           5           7           1           3           8
           2           4           9           3           5          10
           1           4           6           5           0           0
           1           0           0           2           0           0
           3           0           0           4           0           0
RBond                                      R   N=          30
  1.50000000E+00  1.00000000E+00  1.00000000E+00  1.50000000E+00  1.50000000E+00
  1.00000000E+00  1.50000000E+00  1.50000000E+00  1.00000000E+00  1.50000000E+00
  1.00000000E+00  1.00000000E+00  1.00000000E+00  1.00000000E+00  1.00000000E+00
  1.00000000E+00  0.00000000E+00  0.00000000E+00  1.00000000E+00  0.00000000E+00
  0.00000000E+00  1.00000000E+00  0.00000000E+00  0.00000000E+00  1.00000000E+00
  0.00000000E+00  0.00000000E+00  1.00000000E+00  0.00000000E+00  0.00000000E+00
Virial Ratio                               R      2.001416219300109E+00
SCF Energy                                 R     -2.088632794727890E+02
MP2 Energy                                 R     -2.096015050866674E+02
Total Energy                               R     -2.096015050866674E+02
Post-SCF wavefunction norm                 R      1.121652906308079E+00
RMS Density                                R      3.865143778737647E-09
External E-field                           R   N=          35
  0.00000000E+00  0.00000000E+00  0.00000000E+00  0.00000000E+00  0.00000000E+00
  0.00000000E+00  0.00000000E+00  0.00000000E+00  0.00000000E+00  0.00000000E+00
  0.00000000E+00  0.00000000E+00  0.00000000E+00  0.00000000E+00  0.00000000E+00
  0.00000000E+00  0.00000000E+00  0.00000000E+00  0.00000000E+00  0.00000000E+00
  0.00000000E+00  0.00000000E+00  0.00000000E+00  0.00000000E+00  0.00000000E+00
  0.00000000E+00  0.00000000E+00  0.00000000E+00  0.00000000E+00  0.00000000E+00
  0.00000000E+00  0.00000000E+00  0.00000000E+00  0.00000000E+00  0.00000000E+00
IOpCl                                      I                0
IROHF                                      I                0
Alpha Orbital Energies                     R   N=         145
 -1.56070672E+01 -1.12553098E+01 -1.12552678E+01 -1.12121044E+01 -1.12110797E+01
 -1.29138818E+00 -1.04291495E+00 -9.78524938E-01 -7.94006723E-01 -7.68027728E-01
 -7.37521654E-01 -5.93978935E-01 -5.84147650E-01 -5.65668499E-01 -5.49204481E-01
 -5.29088903E-01 -3.46560261E-01 -2.98258989E-01  3.79994341E-02  4.94837387E-02
  5.39078934E-02  7.11256484E-02  7.55345796E-02  1.11431077E-01  1.34386921E-01
  1.38204055E-01  1.46249701E-01  1.54956678E-01  1.62398188E-01  1.63343085E-01
  1.80471672E-01  1.82913158E-01  1.95947814E-01  1.99505870E-01  2.00434102E-01
  2.11880359E-01  2.15709217E-01  2.24386928E-01  2.33148454E-01  2.47455862E-01
  2.80591649E-01  2.83005908E-01  2.85349288E-01  3.34659172E-01  3.40333397E-01
  3.74919933E-01  3.90830929E-01  4.07135947E-01  4.14901740E-01  4.39563197E-01
  4.45060469E-01  4.62125564E-01  5.35950589E-01  6.07645974E-01  6.32548857E-01
  6.47825147E-01  7.30830068E-01  7.33130991E-01  7.41248090E-01  7.54995964E-01
  7.87858074E-01  7.94773222E-01  8.01515520E-01  8.49512272E-01  8.57255921E-01
  9.24167211E-01  9.54870227E-01  9.61504245E-01  1.01172754E+00  1.02462141E+00
  1.02905780E+00  1.05957659E+00  1.06846795E+00  1.06915374E+00  1.10796060E+00
  1.13014683E+00  1.19763693E+00  1.20115944E+00  1.24079419E+00  1.26808559E+00
  1.33208104E+00  1.37432081E+00  1.42015919E+00  1.42899576E+00  1.43243398E+00
  1.65342387E+00  1.79098605E+00  1.80852926E+00  1.82310243E+00  1.83884561E+00
  1.85724189E+00  1.89860683E+00  1.94030724E+00  1.99374893E+00  2.02234232E+00
  2.04654281E+00  2.10050899E+00  2.10942833E+00  2.15202256E+00  2.20483693E+00
  2.22953970E+00  2.29302590E+00  2.29395947E+00  2.30065283E+00  2.31126798E+00
  2.47031212E+00  2.48496151E+00  2.60915720E+00  2.70384503E+00  2.74477428E+00
  2.78771748E+00  2.83546913E+00  2.85492717E+00  2.94996837E+00  2.95424587E+00
  3.03002525E+00  3.04454292E+00  3.05126350E+00  3.08287099E+00  3.09546213E+00
  3.12607263E+00  3.12976373E+00  3.20954000E+00  3.22524788E+00  3.31332594E+00
  3.31682854E+00  3.43238512E+00  3.64076251E+00  3.72443365E+00  3.85062335E+00
  3.90008363E+00  3.91757168E+00  3.98557657E+00  4.19617004E+00  4.34949053E+00
  4.47904554E+00  4.50590584E+00  4.72096536E+00  5.40662090E+00  5.60438421E+00
  2.48794671E+01  2.50715725E+01  2.53039019E+01  2.53640179E+01  3.70283923E+01
Alpha MO coefficients                      R   N=       21025
  1.51799023E-05 -2.11973223E-05  0.00000000E+00 -7.76178940E-05  5.85635988E-05
  1.97834379E-04  0.00000000E+00 -1.75285444E-04  1.14048312E-04  5.18663734E-04
  0.00000000E+00 -5.79203595E-04 -1.92855828E-04 -1.89710024E-04  0.00000000E+00
  2.44693349E-06 -4.14652470E-05  1.20658782E-06  0.00000000E+00 -9.33169314E-05
  2.23298126E-05  0.00000000E+00  1.19789430E-06 -5.22919525E-06  0.00000000E+00
  1.15293476E-05 -5.77643462E-06  3.93447658E-05  0.00000000E+00 -4.20148157E-05
  1.15707545E-05 -3.38482427E-04  0.00000000E+00  1.59285594E-04 -3.18704405E-04
  1.98216215E-05  0.00000000E+00  1.93635692E-04 -1.68170062E-04  2.05118281E-05
  0.00000000E+00 -1.65564871E-05 -2.26823570E-06  0.00000000E+00  1.19789430E-06
 -5.22919525E-06  0.00000000E+00 -1.15293476E-05 -5.77643462E-06  3.93447658E-05
  0.00000000E+00  4.20148157E-05  1.15707545E-05 -3.38482427E-04  0.00000000E+00
 -1.59285594E-04 -3.18704405E-04  1.98216215E-05  0.00000000E+00 -1.93635692E-04
 -1.68170062E-04  2.05118281E-05  0.00000000E+00  1.65564871E-05 -2.26823570E-06
  0.00000000E+00  1.51799023E-05 -2.11973223E-05  0.00000000E+00  7.76178940E-05
  5.85635988E-05  1.97834379E-04  0.00000000E+00  1.75285444E-04  1.14048312E-04
  5.18663734E-04  0.00000000E+00  5.79203595E-04 -1.92855828E-04 -1.89710024E-04
  0.00000000E+00 -2.44693349E-06 -4.14652470E-05  1.20658782E-06  0.00000000E+00
  9.33169314E-05  2.23298126E-05  0.00000000E+00  5.57610802E-01  4.68190401E-01
  0.00000000E+00  0.00000000E+00  9.23930869E-05  5.37788020E-03  0.00000000E+00
  0.00000000E+00 -1.34629415E-04 -1.45168352E-03  0.00000000E+00  0.00000000E+00
  6.83835454E-04  7.52354070E-04  0.00000000E+00  0.00000000E+00 -4.58898782E-04
  9.43902765E-05  0.00000000E+00  0.00000000E+00 -7.92942376E-06  0.00000000E+00
  2.56208699E-04 -2.67233454E-04  2.71818885E-04  1.36909109E-04  0.00000000E+00
  0.00000000E+00  3.43095581E-05 -6.95849204E-06  1.78019020E-04  1.66883231E-04
  1.97383324E-05  0.00000000E+00 -3.89864470E-05 -2.35112492E-05  1.37641962E-06
 -4.70257896E-05 -1.83060925E-04 -1.43369008E-04  0.00000000E+00  1.02486507E-05
  1.26051366E-06  1.37641962E-06 -4.70257896E-05 -1.83060925E-04 -1.43369008E-04
  0.00000000E+00 -1.02486507E-05  1.26051366E-06 -6.95849204E-06  1.78019020E-04
  1.66883231E-04  1.97383324E-05  0.00000000E+00  3.89864470E-05 -2.35112492E-05
  3.98310060E-01  3.29862416E-01  0.00000000E+00 -3.74596019E-04  6.32066502E-04
  3.01132336E-03  0.00000000E+00  2.31365341E-04 -7.08114613E-04  1.55070308E-04
  0.00000000E+00 -4.55365702E-04  2.17485548E-04  3.57310058E-04  0.00000000E+00
 -1.11970094E-03 -5.69699474E-04  2.53964436E-04  0.00000000E+00  3.79651728E-04
 -1.60098231E-04  0.00000000E+00  6.09126476E-03  5.02316519E-03  0.00000000E+00
  5.54627583E-05  1.82184013E-04  1.83594972E-04  0.00000000E+00 -1.61033715E-05
 -2.34149362E-04 -8.50808419E-04  0.00000000E+00  3.64904214E-04 -2.08996984E-04
  5.46342767E-04  0.00000000E+00 -1.53046469E-04  4.82446601E-04 -1.14217770E-04
  0.00000000E+00  1.41499821E-05  4.66200898E-05  0.00000000E+00 -6.09126476E-03
 -5.02316519E-03  0.00000000E+00  5.54627583E-05 -1.82184013E-04 -1.83594972E-04
  0.00000000E+00 -1.61033715E-05  2.34149362E-04  8.50808419E-04  0.00000000E+00
  3.64904214E-04  2.08996984E-04 -5.46342767E-04  0.00000000E+00 -1.53046469E-04
 -4.82446601E-04  1.14217770E-04  0.00000000E+00  1.41499821E-05 -4.66200898E-05
  0.00000000E+00 -3.98310060E-01 -3.29862416E-01  0.00000000E+00 -3.74596019E-04
 -6.32066502E-04 -3.01132336E-03  0.00000000E+00  2.31365341E-04  7.08114613E-04
 -1.55070308E-04  0.00000000E+00 -4.55365702E-04 -2.17485548E-04 -3.57310058E-04
  0.00000000E+00 -1.11970094E-03  5.69699474E-04 -2.53964436E-04  0.00000000E+00
  3.79651728E-04  1.60098231E-04  0.00000000E+00  0.00000000E+00  0.00000000E+00
  0.00000000E+00  1.46915170E-04  0.00000000E+00  0.00000000E+00  0.00000000E+00
  8.39915407E-04  0.00000000E+00  0.00000000E+00  0.00000000E+00 -4.03179799E-04
  0.00000000E+00  0.00000000E+00  0.00000000E+00  1.81026949E-04  0.00000000E+00
  0.00000000E+00  0.00000000E+00 -3.05359345E-04  0.00000000E+00  0.00000000E+00
  0.00000000E+00  0.00000000E+00  0.00000000E+00  0.00000000E+00  0.00000000E+00
  2.05036816E-05  0.00000000E+00  2.48793475E-04 -2.28724798E-04  6.20229381E-04
  7.69408463E-04  0.00000000E+00  8.21532831E-05 -1.32412786E-05  1.28945968E-05
 -9.86298527E-05  8.86472940E-06  1.13747986E-04  0.00000000E+00  1.46402791E-05
 -4.19008315E-06 -1.28945968E-05  9.86298527E-05 -8.86472940E-06 -1.13747986E-04
  0.00000000E+00  1.46402791E-05  4.19008315E-06 -2.48793475E-04  2.28724798E-04
 -6.20229381E-04 -7.69408463E-04  0.00000000E+00  8.21532831E-05  1.32412786E-05
  3.98317139E-01  3.29859059E-01  0.00000000E+00 -3.45087649E-04  6.13871307E-04
  3.07990803E-03  0.00000000E+00  8.96291927E-05 -6.05700660E-04 -8.28303879E-04
  0.00000000E+00  9.91173942E-05  2.06134006E-04 -1.53426833E-03  0.00000000E+00
  3.82125563E-04  2.89683044E-04  2.02461492E-04  0.00000000E+00  2.60618056E-04
 -1.78806396E-04  0.00000000E+00  6.06192547E-03  4.98796616E-03  0.00000000E+00
  5.26379338E-05  1.56266165E-04  2.39600307E-04  0.00000000E+00 -2.29626386E-05
 -6.85246907E-05 -1.57403638E-04  0.00000000E+00  9.02674777E-05 -3.25533683E-05
  1.13205621E-03  0.00000000E+00  1.15344708E-04  1.84400549E-04 -7.58326791E-05
  0.00000000E+00 -2.81305816E-07  6.00171376E-05  0.00000000E+00  6.06192547E-03
  4.98796616E-03  0.00000000E+00 -5.26379338E-05  1.56266165E-04  2.39600307E-04
  0.00000000E+00  2.29626386E-05 -6.85246907E-05 -1.57403638E-04  0.00000000E+00
 -9.02674777E-05 -3.25533683E-05  1.13205621E-03  0.00000000E+00 -1.15344708E-04
  1.84400549E-04 -7.58326791E-05  0.00000000E+00  2.81305816E-07  6.00171376E-05
  0.00000000E+00  3.98317139E-01  3.29859059E-01  0.00000000E+00  3.45087649E-04
  6.13871307E-04  3.07990803E-03  0.00000000E+00 -8.96291927E-05 -6.05700660E-04
 -8.28303879E-04  0.00000000E+00 -9.91173942E-05  2.06134006E-04 -1.53426833E-03
  0.00000000E+00 -3.82125563E-04  2.89683044E-04  2.02461492E-04  0.00000000E+00
 -2.60618056E-04 -1.78806396E-04  0.00000000E+00 -1.88516066E-04 -3.06934648E-04
  0.00000000E+00  0.00000000E+00 -1.30038164E-04  7.45458775E-04  0.00000000E+00
  0.00000000E+00 -4.14660586E-04 -2.21606491E-04  0.00000000E+00  0.00000000E+00
 -8.17390429E-05  1.45153696E-03  0.00000000E+00  0.00000000E+00 -1.42183049E-03
 -1.61182040E-04  0.00000000E+00  0.00000000E+00 -1.34898707E-04  0.00000000E+00
  4.92480216E-05  1.08772695E-05  6.21036396E-04  6.26254129E-04  0.00000000E+00
  0.00000000E+00 -9.41025790E-05  2.54741357E-04 -1.02131111E-04  1.65525514E-04
 -2.46546189E-04  0.00000000E+00  2.51363376E-05 -4.80922585E-06  2.90251009E-06
  2.95845739E-06 -5.32436739E-05 -4.59005921E-05  0.00000000E+00  1.55128320E-06
  1.13559967E-05  2.90251009E-06  2.95845739E-06 -5.32436739E-05 -4.59005921E-05
  0.00000000E+00 -1.55128320E-06  1.13559967E-05  2.54741357E-04 -1.02131111E-04
  1.65525514E-04 -2.46546189E-04  0.00000000E+00 -2.51363376E-05 -4.80922585E-06
 -6.19703554E-03 -5.18483985E-03  0.00000000E+00 -3.81904263E-05 -1.69626598E-04
  2.63531419E-04  0.00000000E+00 -5.09025053E-05 -6.61543448E-05 -4.53727357E-04
  0.00000000E+00  9.18238499E-05 -2.58983944E-05 -3.22978847E-03  0.00000000E+00
  1.15706511E-03  8.07639432E-04  2.11981014E-05  0.00000000E+00 -1.53693930E-05
  1.04797914E-04  0.00000000E+00  3.98226842E-01  3.29764630E-01  0.00000000E+00
 -1.23520366E-04 -4.96758969E-05  3.35990867E-03  0.00000000E+00 -1.77033027E-04
  1.82418492E-04 -5.89874288E-04  0.00000000E+00  5.66703279E-05 -4.12350870E-05
  2.65598897E-03  0.00000000E+00 -5.08193289E-04  1.12131527E-03  1.37320651E-04
  0.00000000E+00 -4.14196759E-06 -2.02818458E-04  0.00000000E+00  3.98226842E-01
  3.29764630E-01  0.00000000E+00  1.23520366E-04 -4.96758969E-05  3.35990867E-03