 Entering Gaussian System, Link 0=g09
 Initial command:
 /apps/software//g09/l1.exe /scratch/itamar/2461.cluster.abaxnet/Gau-28531.inp -scrdir=/scratch/itamar/2461.cluster.abaxnet/
 Entering Link 1 = /apps/software//g09/l1.exe PID=     28532.
  
 Copyright (c) 1988,1990,1992,1993,1995,1998,2003,2009, Gaussian, Inc.
                  All Rights Reserved.
  
 This is part of the Gaussian(R) 09 program.  It is based on
 the Gaussian(R) 03 system (copyright 2003, Gaussian, Inc.),
 the Gaussian(R) 98 system (copyright 1998, Gaussian, Inc.),
 the Gaussian(R) 94 system (copyright 1995, Gaussian, Inc.),
 the Gaussian 92(TM) system (copyright 1992, Gaussian, Inc.),
 the Gaussian 90(TM) system (copyright 1990, Gaussian, Inc.),
 the Gaussian 88(TM) system (copyright 1988, Gaussian, Inc.),
 the Gaussian 86(TM) system (copyright 1986, Carnegie Mellon
 University), and the Gaussian 82(TM) system (copyright 1983,
 Carnegie Mellon University). Gaussian is a federally registered
 trademark of Gaussian, Inc.
  
 This software contains proprietary and confidential information,
 including trade secrets, belonging to Gaussian, Inc.
  
 This software is provided under written license and may be
 used, copied, transmitted, or stored only in accord with that
 written license.
  
 The following legend is applicable only to US Government
 contracts under FAR:
  
                    RESTRICTED RIGHTS LEGEND
  
 Use, reproduction and disclosure by the US Government is
 subject to restrictions as set forth in subparagraphs (a)
 and (c) of the Commercial Computer Software - Restricted
 Rights clause in FAR 52.227-19.
  
 Gaussian, Inc.
 340 Quinnipiac St., Bldg. 40, Wallingford CT 06492
  
  
 ---------------------------------------------------------------
 Warning -- This program may not be used in any manner that
 competes with the business of Gaussian, Inc. or will provide
 assistance to any competitor of Gaussian, Inc.  The licensee
 of this program is prohibited from giving any competitor of
 Gaussian, Inc. access to this program.  By using this program,
 the user acknowledges that Gaussian, Inc. is engaged in the
 business of creating and licensing software in the field of
 computational chemistry and represents and warrants to the
 licensee that it is not a competitor of Gaussian, Inc. and that
 it will not use this program in any manner prohibited above.
 ---------------------------------------------------------------
  

 Cite this work as:
 Gaussian 09, Revision A.02,
 M. J. Frisch, G. W. Trucks, H. B. Schlegel, G. E. Scuseria, 
 M. A. Robb, J. R. Cheeseman, G. Scalmani, V. Barone, B. Mennucci, 
 G. A. Petersson, H. Nakatsuji, M. Caricato, X. Li, H. P. Hratchian, 
 A. F. Izmaylov, J. Bloino, G. Zheng, J. L. Sonnenberg, M. Hada, 
 M. Ehara, K. Toyota, R. Fukuda, J. Hasegawa, M. Ishida, T. Nakajima, 
 Y. Honda, O. Kitao, H. Nakai, T. Vreven, J. A. Montgomery, Jr., 
 J. E. Peralta, F. Ogliaro, M. Bearpark, J. J. Heyd, E. Brothers, 
 K. N. Kudin, V. N. Staroverov, R. Kobayashi, J. Normand, 
 K. Raghavachari, A. Rendell, J. C. Burant, S. S. Iyengar, J. Tomasi, 
 M. Cossi, N. Rega, J. M. Millam, M. Klene, J. E. Knox, J. B. Cross, 
 V. Bakken, C. Adamo, J. Jaramillo, R. Gomperts, R. E. Stratmann, 
 O. Yazyev, A. J. Austin, R. Cammi, C. Pomelli, J. W. Ochterski, 
 R. L. Martin, K. Morokuma, V. G. Zakrzewski, G. A. Voth, 
 P. Salvador, J. J. Dannenberg, S. Dapprich, A. D. Daniels, 
 O. Farkas, J. B. Foresman, J. V. Ortiz, J. Cioslowski, 
 and D. J. Fox, Gaussian, Inc., Wallingford CT, 2009.
 
 ******************************************
 Gaussian 09:  EM64L-G09RevA.02 11-Jun-2009
                 3-Dec-2021 
 ******************************************
 %Mem=3800MB
 %NProcShared=6
 Will use up to    6 processors via shared memory.
 %chk=/home/itamar/Aromaticity-test-set/T6-Subst-Complex-in-Benzene/COCl/cocl.chk
 -----------------------------
 #P MP2/6-311++G** DENSITY=MP2
 -----------------------------
 1/30=1,38=1/1;
 2/12=2,17=6,18=5,40=1/2;
 3/5=4,6=6,7=1111,11=9,16=1,25=1,30=1,71=1/1,2,3;
 4//1;
 5/5=2,38=5/2;
 8/6=4,10=2/1;
 9/15=1,16=-3/6;
 10/5=1,13=10/2;
 6/7=2,8=2,9=2,10=2,22=2/1;
 99/5=1,9=1/99;
 Leave Link    1 at Fri Dec  3 14:28:07 2021, MaxMem=  498073600 cpu:       0.2
 (Enter /apps/software//g09/l101.exe)
 ------
 X=COCl
 ------
 Symbolic Z-matrix:
 Charge =  0 Multiplicity = 1
 6                     2.59452   1.2669    0. 
 6                     1.50334   2.13728   0. 
 6                     0.21088   1.63012   0. 
 6                     0.        0.24161   0. 
 6                     1.09703  -0.62742   0. 
 6                     2.38926  -0.11175   0. 
 1                     0.93826  -1.69666   0. 
 1                     3.23605  -0.78772   0. 
 1                     3.60338   1.66366   0. 
 1                     1.66154   3.20927   0. 
 1                    -0.64589   2.29177   0. 
 6                    -1.41228  -0.21208   0. 
 17                   -1.65252  -2.02858   0. 
 8                    -2.37463   0.4822    0. 
 
 NAtoms=     14 NQM=     14 NQMF=      0 NMic=      0 NMicF=      0 NTot=     14.
                    Isotopes and Nuclear Properties:
 (Nuclear quadrupole moments (NQMom) in fm**2, nuclear magnetic moments (NMagM)
  in nuclear magnetons)

  Atom         1           2           3           4           5           6           7           8           9          10
 IAtWgt=          12          12          12          12          12          12           1           1           1           1
 AtmWgt=  12.0000000  12.0000000  12.0000000  12.0000000  12.0000000  12.0000000   1.0078250   1.0078250   1.0078250   1.0078250
 NucSpn=           0           0           0           0           0           0           1           1           1           1
 AtZEff=   0.0000000   0.0000000   0.0000000   0.0000000   0.0000000   0.0000000   0.0000000   0.0000000   0.0000000   0.0000000
 NQMom=    0.0000000   0.0000000   0.0000000   0.0000000   0.0000000   0.0000000   0.0000000   0.0000000   0.0000000   0.0000000
 NMagM=    0.0000000   0.0000000   0.0000000   0.0000000   0.0000000   0.0000000   2.7928460   2.7928460   2.7928460   2.7928460

  Atom        11          12          13          14
 IAtWgt=           1          12          35          16
 AtmWgt=   1.0078250  12.0000000  34.9688527  15.9949146
 NucSpn=           1           0           3           0
 AtZEff=   0.0000000   0.0000000   0.0000000   0.0000000
 NQMom=    0.0000000   0.0000000  -8.1650000   0.0000000
 NMagM=    2.7928460   0.0000000   0.8218740   0.0000000
 Leave Link  101 at Fri Dec  3 14:28:07 2021, MaxMem=  498073600 cpu:       0.3
 (Enter /apps/software//g09/l202.exe)
                          Input orientation:                          
 ---------------------------------------------------------------------
 Center     Atomic      Atomic             Coordinates (Angstroms)
 Number     Number       Type             X           Y           Z
 ---------------------------------------------------------------------
      1          6           0        2.594516    1.266902    0.000000
      2          6           0        1.503343    2.137280    0.000000
      3          6           0        0.210882    1.630118    0.000000
      4          6           0        0.000000    0.241608    0.000000
      5          6           0        1.097026   -0.627421    0.000000
      6          6           0        2.389263   -0.111751    0.000000
      7          1           0        0.938262   -1.696660    0.000000
      8          1           0        3.236054   -0.787720    0.000000
      9          1           0        3.603378    1.663658    0.000000
     10          1           0        1.661540    3.209273    0.000000
     11          1           0       -0.645890    2.291773    0.000000
     12          6           0       -1.412284   -0.212076    0.000000
     13         17           0       -1.652515   -2.028579    0.000000
     14          8           0       -2.374633    0.482195    0.000000
 ---------------------------------------------------------------------
                    Distance matrix (angstroms):
                    1          2          3          4          5
     1  C    0.000000
     2  C    1.395785   0.000000
     3  C    2.411148   1.388405   0.000000
     4  C    2.789756   2.419424   1.404433   0.000000
     5  C    2.414733   2.794399   2.425229   1.399528   0.000000
     6  C    1.393848   2.417229   2.789167   2.415252   1.391327
     7  H    3.394978   3.875360   3.405368   2.153420   1.080962
     8  H    2.152450   3.399693   3.872674   3.395815   2.145026
     9  H    1.084075   2.152781   3.392662   3.873830   3.395710
    10  H    2.154820   1.083603   2.144327   3.401140   3.878002
    11  H    3.398616   2.154779   1.082518   2.149500   3.399919
    12  C    4.271045   3.744376   2.455269   1.483366   2.543452
    13  Cl   5.375636   5.226263   4.105887   2.807945   3.085971
    14  O    5.030726   4.216397   2.828889   2.386789   3.644676
                    6          7          8          9         10
     6  C    0.000000
     7  H    2.148800   0.000000
     8  H    1.083508   2.471036   0.000000
     9  H    2.150849   4.288890   2.478746   0.000000
    10  H    3.399821   4.958963   4.295934   2.481866   0.000000
    11  H    3.871573   4.291519   4.955075   4.295440   2.483151
    12  C    3.802871   2.780118   4.683846   5.354927   4.599350
    13  Cl   4.473276   2.611952   5.043594   6.423163   6.198230
    14  O    4.800779   3.965184   5.752607   6.093642   4.871103
                   11         12         13         14
    11  H    0.000000
    12  C    2.618515   0.000000
    13  Cl   4.436072   1.832319   0.000000
    14  O    2.502624   1.186646   2.612554   0.000000
 Stoichiometry    C7H5ClO
 Framework group  CS[SG(C7H5ClO)]
 Deg. of freedom    25
 Full point group                 CS      NOp   2
 Largest Abelian subgroup         CS      NOp   2
 Largest concise Abelian subgroup C1      NOp   1
                         Standard orientation:                         
 ---------------------------------------------------------------------
 Center     Atomic      Atomic             Coordinates (Angstroms)
 Number     Number       Type             X           Y           Z
 ---------------------------------------------------------------------
      1          6           0        2.594516    1.266902    0.000000
      2          6           0        1.503343    2.137280    0.000000
      3          6           0        0.210882    1.630118    0.000000
      4          6           0        0.000000    0.241608    0.000000
      5          6           0        1.097026   -0.627421    0.000000
      6          6           0        2.389263   -0.111751    0.000000
      7          1           0        0.938262   -1.696660    0.000000
      8          1           0        3.236054   -0.787720    0.000000
      9          1           0        3.603378    1.663658    0.000000
     10          1           0        1.661540    3.209273    0.000000
     11          1           0       -0.645890    2.291773    0.000000
     12          6           0       -1.412284   -0.212076    0.000000
     13         17           0       -1.652515   -2.028579    0.000000
     14          8           0       -2.374633    0.482195    0.000000
 ---------------------------------------------------------------------
 Rotational constants (GHZ):      3.1239863      0.9229498      0.7124606
 Leave Link  202 at Fri Dec  3 14:28:07 2021, MaxMem=  498073600 cpu:       0.0
 (Enter /apps/software//g09/l301.exe)
 Standard basis: 6-311++G(d,p) (5D, 7F)
 Ernie: Thresh=  0.10000D-02 Tol=  0.10000D-05 Strict=F.
 There are   180 symmetry adapted basis functions of A'  symmetry.
 There are    61 symmetry adapted basis functions of A"  symmetry.
 Integral buffers will be    131072 words long.
 Raffenetti 1 integral format.
 Two-electron integral symmetry is turned on.
   241 basis functions,   386 primitive gaussians,   250 cartesian basis functions
    36 alpha electrons       36 beta electrons
       nuclear repulsion energy       459.8841625721 Hartrees.
 IExCor=    0 DFT=F Ex=HF Corr=None ExCW=0 ScaHFX=  1.000000
 ScaDFX=  1.000000  1.000000  1.000000  1.000000 ScalE2=  1.000000  1.000000
 IRadAn=      0 IRanWt=     -1 IRanGd=            0 ICorTp=0
 NAtoms=   14 NActive=   14 NUniq=   14 SFac= 7.50D-01 NAtFMM=   80 NAOKFM=F Big=F
 Leave Link  301 at Fri Dec  3 14:28:08 2021, MaxMem=  498073600 cpu:       0.3
 (Enter /apps/software//g09/l302.exe)
 NPDir=0 NMtPBC=     1 NCelOv=     1 NCel=       1 NClECP=     1 NCelD=      1
         NCelK=      1 NCelE2=     1 NClLst=     1 CellRange=     0.0.
 One-electron integrals computed using PRISM.
 NBasis=   241 RedAO= T  NBF=   180    61
 NBsUse=   241 1.00D-06 NBFU=   180    61
 Leave Link  302 at Fri Dec  3 14:28:08 2021, MaxMem=  498073600 cpu:       1.8
 (Enter /apps/software//g09/l303.exe)
 DipDrv:  MaxL=1.
 Leave Link  303 at Fri Dec  3 14:28:08 2021, MaxMem=  498073600 cpu:       0.4
 (Enter /apps/software//g09/l401.exe)
 Harris functional with IExCor=  205 diagonalized for initial guess.
 ExpMin= 3.60D-02 ExpMax= 1.06D+05 ExpMxC= 3.62D+03 IAcc=3 IRadAn=         0 AccDes= 0.00D+00
 HarFok:  IExCor=  205 AccDes= 0.00D+00 IRadAn=         0 IDoV= 1
 ScaDFX=  1.000000  1.000000  1.000000  1.000000
 FoFCou: FMM=F IPFlag=           0 FMFlag=      100000 FMFlg1=           0
         NFxFlg=           0 DoJE=T BraDBF=F KetDBF=T FulRan=T
         Omega=  0.000000  0.000000  1.000000  0.000000  0.000000 ICntrl=     500 IOpCl=  0
         NMat0=    1 NMatS0=    1 NMatT0=    0 NMatD0=    1 NMtDS0=    0 NMtDT0=    0
         I1Cent=           4 NGrid=           0.
 Petite list used in FoFCou.
 Harris En= -802.417852835048    
 Initial guess orbital symmetries:
       Occupied  (A') (A') (A') (A') (A') (A') (A') (A') (A') (A')
                 (A') (A") (A') (A') (A') (A') (A') (A') (A') (A')
                 (A') (A') (A') (A') (A') (A') (A') (A") (A') (A")
                 (A') (A') (A") (A") (A") (A')
       Virtual   (A") (A") (A") (A') (A') (A') (A") (A') (A') (A')
                 (A') (A") (A') (A') (A") (A") (A') (A') (A') (A')
                 (A') (A') (A") (A') (A") (A') (A') (A') (A') (A")
                 (A') (A') (A") (A') (A') (A") (A') (A') (A') (A')
                 (A') (A') (A') (A') (A') (A') (A") (A') (A') (A')
                 (A') (A') (A') (A') (A') (A') (A') (A') (A') (A')
                 (A") (A') (A") (A') (A') (A") (A') (A") (A') (A")
                 (A') (A") (A') (A") (A') (A') (A") (A') (A') (A')
                 (A') (A') (A") (A') (A') (A") (A') (A') (A') (A')
                 (A') (A') (A") (A') (A") (A') (A') (A') (A") (A")
                 (A') (A") (A") (A') (A') (A") (A') (A') (A') (A')
                 (A') (A") (A') (A') (A') (A') (A") (A") (A") (A')
                 (A') (A') (A') (A") (A') (A") (A') (A") (A') (A')
                 (A") (A") (A') (A') (A') (A') (A') (A') (A") (A")
                 (A') (A') (A") (A") (A") (A') (A') (A') (A') (A')
                 (A') (A") (A') (A') (A") (A') (A") (A') (A') (A")
                 (A') (A') (A") (A') (A') (A") (A') (A") (A') (A')
                 (A") (A') (A') (A') (A') (A') (A") (A') (A') (A')
                 (A') (A') (A') (A') (A') (A') (A') (A') (A') (A")
                 (A') (A') (A') (A') (A') (A') (A') (A') (A') (A')
                 (A") (A') (A') (A') (A')
 The electronic state of the initial guess is 1-A'.
 Leave Link  401 at Fri Dec  3 14:28:09 2021, MaxMem=  498073600 cpu:       4.0
 (Enter /apps/software//g09/l502.exe)
 Closed shell SCF:
 Requested convergence on RMS density matrix=1.00D-08 within 128 cycles.
 Requested convergence on MAX density matrix=1.00D-06.
 Requested convergence on             energy=1.00D-06.
 No special actions if energy rises.
 Using DIIS extrapolation, IDIIS=  1040.
 Integral symmetry usage will be decided dynamically.
 IEnd=      209087 IEndB=      209087 NGot=   498073600 MDV=   497943904
 LenX=   497943904 LenY=   497880963
 Fock matrices will be formed incrementally for  20 cycles.

 Cycle   1  Pass 0  IDiag  1:
 FoFCou: FMM=F IPFlag=           0 FMFlag=      100000 FMFlg1=           0
         NFxFlg=           0 DoJE=F BraDBF=F KetDBF=F FulRan=T
         Omega=  0.000000  0.000000  1.000000  0.000000  0.000000 ICntrl=       0 IOpCl=  0
         NMat0=    1 NMatS0=    1 NMatT0=    0 NMatD0=    1 NMtDS0=    0 NMtDT0=    0
         I1Cent=           0 NGrid=           0.
 Petite list used in FoFCou.
 E= -802.091366813701    
 DIIS: error= 6.46D-02 at cycle   1 NSaved=   1.
 NSaved= 1 IEnMin= 1 EnMin= -802.091366813701     IErMin= 1 ErrMin= 6.46D-02
 ErrMax= 6.46D-02 EMaxC= 1.00D-01 BMatC= 1.22D+00 BMatP= 1.22D+00
 IDIUse=3 WtCom= 3.54D-01 WtEn= 6.46D-01
 Coeff-Com:  0.100D+01
 Coeff-En:   0.100D+01
 Coeff:      0.100D+01
 Gap=     0.599 Goal=   None    Shift=    0.000
 GapD=    0.599 DampG=2.000 DampE=0.500 DampFc=1.0000 IDamp=-1.
 RMSDP=3.75D-02 MaxDP=3.43D+00              OVMax= 1.46D-01

 Cycle   2  Pass 0  IDiag  1:
 RMSU=  1.43D-02    CP:  7.30D-01
 E= -802.380565377593     Delta-E=       -0.289198563892 Rises=F Damp=F
 DIIS: error= 1.88D-02 at cycle   2 NSaved=   2.
 NSaved= 2 IEnMin= 2 EnMin= -802.380565377593     IErMin= 2 ErrMin= 1.88D-02
 ErrMax= 1.88D-02 EMaxC= 1.00D-01 BMatC= 8.12D-02 BMatP= 1.22D+00
 IDIUse=3 WtCom= 8.12D-01 WtEn= 1.88D-01
 Coeff-Com:  0.115D+00 0.885D+00
 Coeff-En:   0.000D+00 0.100D+01
 Coeff:      0.930D-01 0.907D+00
 Gap=     0.435 Goal=   None    Shift=    0.000
 RMSDP=1.34D-02 MaxDP=7.18D-01 DE=-2.89D-01 OVMax= 7.59D-02

 Cycle   3  Pass 0  IDiag  1:
 RMSU=  8.21D-03    CP:  7.43D-01  6.80D-01
 E= -802.430724958401     Delta-E=       -0.050159580808 Rises=F Damp=F
 DIIS: error= 1.21D-02 at cycle   3 NSaved=   3.
 NSaved= 3 IEnMin= 3 EnMin= -802.430724958401     IErMin= 3 ErrMin= 1.21D-02
 ErrMax= 1.21D-02 EMaxC= 1.00D-01 BMatC= 2.37D-02 BMatP= 8.12D-02
 IDIUse=3 WtCom= 8.79D-01 WtEn= 1.21D-01
 Coeff-Com: -0.114D-01 0.336D+00 0.676D+00
 Coeff-En:   0.000D+00 0.536D-01 0.946D+00
 Coeff:     -0.101D-01 0.302D+00 0.708D+00
 Gap=     0.413 Goal=   None    Shift=    0.000
 RMSDP=4.78D-03 MaxDP=3.69D-01 DE=-5.02D-02 OVMax= 3.40D-02

 Cycle   4  Pass 0  IDiag  1:
 RMSU=  1.71D-03    CP:  7.20D-01  8.24D-01  8.96D-01
 E= -802.447629653056     Delta-E=       -0.016904694656 Rises=F Damp=F
 DIIS: error= 2.42D-03 at cycle   4 NSaved=   4.
 NSaved= 4 IEnMin= 4 EnMin= -802.447629653056     IErMin= 4 ErrMin= 2.42D-03
 ErrMax= 2.42D-03 EMaxC= 1.00D-01 BMatC= 1.08D-03 BMatP= 2.37D-02
 IDIUse=3 WtCom= 9.76D-01 WtEn= 2.42D-02
 Coeff-Com: -0.686D-02 0.740D-01 0.249D+00 0.684D+00
 Coeff-En:   0.000D+00 0.000D+00 0.000D+00 0.100D+01
 Coeff:     -0.669D-02 0.722D-01 0.243D+00 0.691D+00
 Gap=     0.395 Goal=   None    Shift=    0.000
 RMSDP=1.16D-03 MaxDP=8.28D-02 DE=-1.69D-02 OVMax= 7.96D-03

 Cycle   5  Pass 0  IDiag  1:
 RMSU=  6.92D-04    CP:  7.19D-01  8.37D-01  8.88D-01  7.86D-01
 E= -802.448520561881     Delta-E=       -0.000890908825 Rises=F Damp=F
 DIIS: error= 7.89D-04 at cycle   5 NSaved=   5.
 NSaved= 5 IEnMin= 5 EnMin= -802.448520561881     IErMin= 5 ErrMin= 7.89D-04
 ErrMax= 7.89D-04 EMaxC= 1.00D-01 BMatC= 5.13D-05 BMatP= 1.08D-03
 IDIUse=3 WtCom= 9.92D-01 WtEn= 7.89D-03
 Coeff-Com:  0.859D-03-0.314D-01-0.627D-01 0.590D-01 0.103D+01
 Coeff-En:   0.000D+00 0.000D+00 0.000D+00 0.000D+00 0.100D+01
 Coeff:      0.852D-03-0.311D-01-0.623D-01 0.585D-01 0.103D+01
 Gap=     0.396 Goal=   None    Shift=    0.000
 RMSDP=5.76D-04 MaxDP=2.95D-02 DE=-8.91D-04 OVMax= 3.94D-03

 Cycle   6  Pass 0  IDiag  1:
 RMSU=  1.84D-04    CP:  7.20D-01  8.40D-01  9.22D-01  8.48D-01  1.19D+00
 E= -802.448631365797     Delta-E=       -0.000110803916 Rises=F Damp=F
 DIIS: error= 2.84D-04 at cycle   6 NSaved=   6.
 NSaved= 6 IEnMin= 6 EnMin= -802.448631365797     IErMin= 6 ErrMin= 2.84D-04
 ErrMax= 2.84D-04 EMaxC= 1.00D-01 BMatC= 5.46D-06 BMatP= 5.13D-05
 IDIUse=3 WtCom= 9.97D-01 WtEn= 2.84D-03
 Coeff-Com:  0.459D-03-0.348D-02-0.141D-01-0.793D-01-0.114D+00 0.121D+01
 Coeff-En:   0.000D+00 0.000D+00 0.000D+00 0.000D+00 0.000D+00 0.100D+01
 Coeff:      0.458D-03-0.347D-02-0.140D-01-0.791D-01-0.113D+00 0.121D+01
 Gap=     0.396 Goal=   None    Shift=    0.000
 RMSDP=2.53D-04 MaxDP=1.19D-02 DE=-1.11D-04 OVMax= 2.01D-03

 Cycle   7  Pass 0  IDiag  1:
 RMSU=  6.49D-05    CP:  7.21D-01  8.45D-01  9.32D-01  8.56D-01  1.36D+00
                    CP:  1.27D+00
 E= -802.448651498173     Delta-E=       -0.000020132376 Rises=F Damp=F
 DIIS: error= 9.46D-05 at cycle   7 NSaved=   7.
 NSaved= 7 IEnMin= 7 EnMin= -802.448651498173     IErMin= 7 ErrMin= 9.46D-05
 ErrMax= 9.46D-05 EMaxC= 1.00D-01 BMatC= 1.08D-06 BMatP= 5.46D-06
 IDIUse=1 WtCom= 1.00D+00 WtEn= 0.00D+00
 Coeff-Com: -0.588D-04 0.383D-02 0.760D-02-0.204D-01-0.125D+00 0.103D+00
 Coeff-Com:  0.103D+01
 Coeff:     -0.588D-04 0.383D-02 0.760D-02-0.204D-01-0.125D+00 0.103D+00
 Coeff:      0.103D+01
 Gap=     0.396 Goal=   None    Shift=    0.000
 RMSDP=9.06D-05 MaxDP=4.66D-03 DE=-2.01D-05 OVMax= 7.79D-04

 Cycle   8  Pass 0  IDiag  1:
 RMSU=  1.82D-05    CP:  7.21D-01  8.46D-01  9.34D-01  8.49D-01  1.41D+00
                    CP:  1.40D+00  1.40D+00
 E= -802.448654782115     Delta-E=       -0.000003283942 Rises=F Damp=F
 DIIS: error= 9.10D-05 at cycle   8 NSaved=   8.
 NSaved= 8 IEnMin= 8 EnMin= -802.448654782115     IErMin= 8 ErrMin= 9.10D-05
 ErrMax= 9.10D-05 EMaxC= 1.00D-01 BMatC= 2.19D-07 BMatP= 1.08D-06
 IDIUse=1 WtCom= 1.00D+00 WtEn= 0.00D+00
 Coeff-Com: -0.114D-03 0.150D-02 0.483D-02 0.118D-01 0.128D-01-0.267D+00
 Coeff-Com:  0.111D+00 0.112D+01
 Coeff:     -0.114D-03 0.150D-02 0.483D-02 0.118D-01 0.128D-01-0.267D+00
 Coeff:      0.111D+00 0.112D+01
 Gap=     0.396 Goal=   None    Shift=    0.000
 RMSDP=4.75D-05 MaxDP=3.74D-03 DE=-3.28D-06 OVMax= 5.45D-04

 Cycle   9  Pass 0  IDiag  1:
 RMSU=  1.34D-05    CP:  7.21D-01  8.46D-01  9.36D-01  8.44D-01  1.43D+00
                    CP:  1.44D+00  1.54D+00  1.14D+00
 E= -802.448655549841     Delta-E=       -0.000000767726 Rises=F Damp=F
 DIIS: error= 1.83D-05 at cycle   9 NSaved=   9.
 NSaved= 9 IEnMin= 9 EnMin= -802.448655549841     IErMin= 9 ErrMin= 1.83D-05
 ErrMax= 1.83D-05 EMaxC= 1.00D-01 BMatC= 2.18D-08 BMatP= 2.19D-07
 IDIUse=1 WtCom= 1.00D+00 WtEn= 0.00D+00
 Coeff-Com: -0.695D-05-0.281D-03-0.303D-03 0.263D-02 0.142D-01-0.279D-01
 Coeff-Com: -0.122D+00 0.117D+00 0.102D+01
 Coeff:     -0.695D-05-0.281D-03-0.303D-03 0.263D-02 0.142D-01-0.279D-01
 Coeff:     -0.122D+00 0.117D+00 0.102D+01
 Gap=     0.396 Goal=   None    Shift=    0.000
 RMSDP=1.25D-05 MaxDP=1.13D-03 DE=-7.68D-07 OVMax= 1.40D-04

 Cycle  10  Pass 0  IDiag  1:
 RMSU=  2.87D-06    CP:  7.21D-01  8.46D-01  9.37D-01  8.45D-01  1.43D+00
                    CP:  1.43D+00  1.55D+00  1.21D+00  1.44D+00
 E= -802.448655615757     Delta-E=       -0.000000065917 Rises=F Damp=F
 DIIS: error= 1.02D-05 at cycle  10 NSaved=  10.
 NSaved=10 IEnMin=10 EnMin= -802.448655615757     IErMin=10 ErrMin= 1.02D-05
 ErrMax= 1.02D-05 EMaxC= 1.00D-01 BMatC= 3.31D-09 BMatP= 2.18D-08
 IDIUse=1 WtCom= 1.00D+00 WtEn= 0.00D+00
 Coeff-Com:  0.119D-04-0.236D-03-0.620D-03-0.125D-02 0.213D-03 0.334D-01
 Coeff-Com: -0.358D-01-0.133D+00 0.110D+00 0.103D+01
 Coeff:      0.119D-04-0.236D-03-0.620D-03-0.125D-02 0.213D-03 0.334D-01
 Coeff:     -0.358D-01-0.133D+00 0.110D+00 0.103D+01
 Gap=     0.396 Goal=   None    Shift=    0.000
 RMSDP=5.86D-06 MaxDP=5.65D-04 DE=-6.59D-08 OVMax= 6.48D-05

 Initial convergence to 1.0D-05 achieved.  Increase integral accuracy.
 Cycle  11  Pass 1  IDiag  1:
 E= -802.448655627188     Delta-E=       -0.000000011431 Rises=F Damp=F
 DIIS: error= 3.82D-06 at cycle   1 NSaved=   1.
 NSaved= 1 IEnMin= 1 EnMin= -802.448655627188     IErMin= 1 ErrMin= 3.82D-06
 ErrMax= 3.82D-06 EMaxC= 1.00D-01 BMatC= 5.05D-10 BMatP= 5.05D-10
 IDIUse=1 WtCom= 1.00D+00 WtEn= 0.00D+00
 Coeff-Com:  0.100D+01
 Coeff:      0.100D+01
 Gap=     0.396 Goal=   None    Shift=    0.000
 RMSDP=5.86D-06 MaxDP=5.65D-04 DE=-1.14D-08 OVMax= 2.33D-05

 Cycle  12  Pass 1  IDiag  1:
 RMSU=  9.90D-07    CP:  1.00D+00
 E= -802.448655629127     Delta-E=       -0.000000001938 Rises=F Damp=F
 DIIS: error= 2.77D-06 at cycle   2 NSaved=   2.
 NSaved= 2 IEnMin= 2 EnMin= -802.448655629127     IErMin= 2 ErrMin= 2.77D-06
 ErrMax= 2.77D-06 EMaxC= 1.00D-01 BMatC= 2.12D-10 BMatP= 5.05D-10
 IDIUse=1 WtCom= 1.00D+00 WtEn= 0.00D+00
 Coeff-Com: -0.902D-01 0.109D+01
 Coeff:     -0.902D-01 0.109D+01
 Gap=     0.396 Goal=   None    Shift=    0.000
 RMSDP=1.37D-06 MaxDP=8.81D-05 DE=-1.94D-09 OVMax= 1.40D-05

 Cycle  13  Pass 1  IDiag  1:
 RMSU=  7.37D-07    CP:  1.00D+00  1.21D+00
 E= -802.448655629979     Delta-E=       -0.000000000852 Rises=F Damp=F
 DIIS: error= 1.83D-06 at cycle   3 NSaved=   3.
 NSaved= 3 IEnMin= 3 EnMin= -802.448655629979     IErMin= 3 ErrMin= 1.83D-06
 ErrMax= 1.83D-06 EMaxC= 1.00D-01 BMatC= 8.33D-11 BMatP= 2.12D-10
 IDIUse=1 WtCom= 1.00D+00 WtEn= 0.00D+00
 Coeff-Com: -0.578D+00 0.145D+00 0.143D+01
 Coeff:     -0.578D+00 0.145D+00 0.143D+01
 Gap=     0.396 Goal=   None    Shift=    0.000
 RMSDP=1.20D-06 MaxDP=8.57D-05 DE=-8.52D-10 OVMax= 2.25D-05

 Cycle  14  Pass 1  IDiag  1:
 RMSU=  1.47D-07    CP:  1.00D+00  1.76D+00  1.41D+00
 E= -802.448655630531     Delta-E=       -0.000000000552 Rises=F Damp=F
 DIIS: error= 4.75D-07 at cycle   4 NSaved=   4.
 NSaved= 4 IEnMin= 4 EnMin= -802.448655630531     IErMin= 4 ErrMin= 4.75D-07
 ErrMax= 4.75D-07 EMaxC= 1.00D-01 BMatC= 6.77D-12 BMatP= 8.33D-11
 IDIUse=1 WtCom= 1.00D+00 WtEn= 0.00D+00
 Coeff-Com: -0.494D-02-0.118D+00 0.953D-01 0.103D+01
 Coeff:     -0.494D-02-0.118D+00 0.953D-01 0.103D+01
 Gap=     0.396 Goal=   None    Shift=    0.000
 RMSDP=1.20D-07 MaxDP=8.04D-06 DE=-5.52D-10 OVMax= 3.56D-06

 Cycle  15  Pass 1  IDiag  1:
 RMSU=  5.79D-08    CP:  1.00D+00  1.78D+00  1.47D+00  1.28D+00
 E= -802.448655630562     Delta-E=       -0.000000000031 Rises=F Damp=F
 DIIS: error= 1.87D-07 at cycle   5 NSaved=   5.
 NSaved= 5 IEnMin= 5 EnMin= -802.448655630562     IErMin= 5 ErrMin= 1.87D-07
 ErrMax= 1.87D-07 EMaxC= 1.00D-01 BMatC= 1.41D-12 BMatP= 6.77D-12
 IDIUse=1 WtCom= 1.00D+00 WtEn= 0.00D+00
 Coeff-Com:  0.176D+00-0.777D-01-0.397D+00 0.108D+00 0.119D+01
 Coeff:      0.176D+00-0.777D-01-0.397D+00 0.108D+00 0.119D+01
 Gap=     0.396 Goal=   None    Shift=    0.000
 RMSDP=1.24D-07 MaxDP=5.93D-06 DE=-3.07D-11 OVMax= 2.22D-06

 Cycle  16  Pass 1  IDiag  1:
 RMSU=  3.15D-08    CP:  1.00D+00  1.73D+00  1.54D+00  1.50D+00  1.48D+00
 E= -802.448655630564     Delta-E=       -0.000000000002 Rises=F Damp=F
 DIIS: error= 2.88D-08 at cycle   6 NSaved=   6.
 NSaved= 6 IEnMin= 6 EnMin= -802.448655630564     IErMin= 6 ErrMin= 2.88D-08
 ErrMax= 2.88D-08 EMaxC= 1.00D-01 BMatC= 6.09D-14 BMatP= 1.41D-12
 IDIUse=1 WtCom= 1.00D+00 WtEn= 0.00D+00
 Coeff-Com:  0.133D-01 0.707D-03-0.310D-01-0.556D-01 0.949D-01 0.978D+00
 Coeff:      0.133D-01 0.707D-03-0.310D-01-0.556D-01 0.949D-01 0.978D+00
 Gap=     0.396 Goal=   None    Shift=    0.000
 RMSDP=3.25D-08 MaxDP=2.33D-06 DE=-1.59D-12 OVMax= 1.91D-07

 Cycle  17  Pass 1  IDiag  1:
 RMSU=  6.79D-09    CP:  1.00D+00  1.71D+00  1.54D+00  1.47D+00  1.56D+00
                    CP:  1.40D+00
 E= -802.448655630554     Delta-E=        0.000000000009 Rises=F Damp=F
 DIIS: error= 1.32D-08 at cycle   7 NSaved=   7.
 NSaved= 7 IEnMin= 6 EnMin= -802.448655630564     IErMin= 7 ErrMin= 1.32D-08
 ErrMax= 1.32D-08 EMaxC= 1.00D-01 BMatC= 1.38D-14 BMatP= 6.09D-14
 IDIUse=1 WtCom= 1.00D+00 WtEn= 0.00D+00
 Coeff-Com: -0.251D-01 0.113D-01 0.570D-01-0.254D-01-0.173D+00 0.142D+00
 Coeff-Com:  0.101D+01
 Coeff:     -0.251D-01 0.113D-01 0.570D-01-0.254D-01-0.173D+00 0.142D+00
 Coeff:      0.101D+01
 Gap=     0.396 Goal=   None    Shift=    0.000
 RMSDP=1.63D-08 MaxDP=1.13D-06 DE= 9.32D-12 OVMax= 9.23D-08

 Cycle  18  Pass 1  IDiag  1:
 RMSU=  2.80D-09    CP:  1.00D+00  1.71D+00  1.55D+00  1.46D+00  1.63D+00
                    CP:  1.62D+00  1.41D+00
 E= -802.448655630557     Delta-E=       -0.000000000002 Rises=F Damp=F
 DIIS: error= 5.46D-09 at cycle   8 NSaved=   8.
 NSaved= 8 IEnMin= 6 EnMin= -802.448655630564     IErMin= 8 ErrMin= 5.46D-09
 ErrMax= 5.46D-09 EMaxC= 1.00D-01 BMatC= 2.52D-15 BMatP= 1.38D-14
 IDIUse=1 WtCom= 1.00D+00 WtEn= 0.00D+00
 Coeff-Com: -0.893D-02 0.266D-02 0.207D-01 0.426D-02-0.669D-01-0.110D+00
 Coeff-Com:  0.324D+00 0.834D+00
 Coeff:     -0.893D-02 0.266D-02 0.207D-01 0.426D-02-0.669D-01-0.110D+00
 Coeff:      0.324D+00 0.834D+00
 Gap=     0.396 Goal=   None    Shift=    0.000
 RMSDP=5.55D-09 MaxDP=3.56D-07 DE=-2.05D-12 OVMax= 3.52D-08

 SCF Done:  E(RHF) =  -802.448655631     A.U. after   18 cycles
             Convg  =    0.5549D-08             -V/T =  2.0006
 KE= 8.020056963161D+02 PE=-2.814925943290D+03 EE= 7.505874287714D+02
 Leave Link  502 at Fri Dec  3 14:29:29 2021, MaxMem=  498073600 cpu:     483.4
 (Enter /apps/software//g09/l801.exe)
 ExpMin= 3.60D-02 ExpMax= 1.06D+05 ExpMxC= 3.62D+03 IAcc=3 IRadAn=         5 AccDes= 0.00D+00
 HarFok:  IExCor=  205 AccDes= 0.00D+00 IRadAn=         5 IDoV=-2
 ScaDFX=  1.000000  1.000000  1.000000  1.000000
 Largest valence mixing into a core orbital is  4.02D-04
 Largest core mixing into a valence orbital is  1.21D-04
 Range of M.O.s used for correlation:    14   241
 NBasis=   241 NAE=    36 NBE=    36 NFC=    13 NFV=     0
 NROrb=    228 NOA=    23 NOB=    23 NVA=   205 NVB=   205

 **** Warning!!: The largest alpha MO coefficient is  0.23782134D+03

 Leave Link  801 at Fri Dec  3 14:29:30 2021, MaxMem=  498073600 cpu:       1.5
 (Enter /apps/software//g09/l906.exe)
 Frozen-core derivative calculation, NFC=  13 NFV=   0.
 FulOut=F Deriv=T AODrv=F NAtomX=    14
   MMem=          65  MDisk=          23 MDiskD=          23
  W3Min=     2169000 MinDsk=     2840375 NBas6D=         250
 NBas2D=       31738    NTT=       31375    LW2=     2040000
    MDV=   497363045 MDiskM=       27520 NBas2p=       30027
 Fully direct method using O(ONN) memory.
 IMap=   1   2   3   4   5   6   7   8   9  10  11  12  13  14  15  16  17  18  19  20
 IMap=  21  22  23  24  25  26  27  28  29  30  31  32  33  34  35  36
 JobTyp=1 Pass  1:  I=  14 to  22 NPSUse=  6 ParTrn=T ParDer=T DoDerP=T.
 JobTyp=1 Pass  2:  I=  23 to  31 NPSUse=  6 ParTrn=T ParDer=T DoDerP=T.
 JobTyp=1 Pass  3:  I=  32 to  36 NPSUse=  6 ParTrn=T ParDer=T DoDerP=T.
 Spin components of T(2) and E(2):
     alpha-alpha T2 =       0.6465369437D-01 E2=     -0.1746705701D+00
     alpha-beta  T2 =       0.3296757822D+00 E2=     -0.9424618372D+00
     beta-beta   T2 =       0.6465369437D-01 E2=     -0.1746705701D+00
 The integrals were generated   3 times.
 ANorm=    0.1207883757D+01
 E2 =    -0.1291802977D+01 EUMP2 =    -0.80374045860802D+03
 Leave Link  906 at Fri Dec  3 14:30:58 2021, MaxMem=  498073600 cpu:     530.8
 (Enter /apps/software//g09/l1002.exe)
 Minotr:  Closed shell wavefunction.
          Computing MP2/KS-MP2 derivatives.
          Using Z-Vector for PSCF gradient.
          Skipping F1 and S1 gradient terms here.
          Frozen-core window.
          Direct CPHF calculation.
          Differentiating once with respect to electric field.
                with respect to dipole field.
          Electric field/nuclear overlap derivatives assumed to be zero.
          Using symmetry in CPHF.
          Requested convergence is 1.0D-10 RMS, and 1.0D-09 maximum.
          NewPWx=F KeepS1=T KeepF1=T KeepIn=T MapXYZ=F SortEE=F KeepMc=T.
          MDV=     498073484 using IRadAn=       0.
          Solving linear equations separately, MaxMat=       0.
          There are     1 degrees of freedom in the 1st order CPHF.  IDoFFX=0.
 Petite list used in FoFDir.
 MinBra= 0 MaxBra= 2 Meth= 1.
 IRaf=       0 NMat=   1 IRICut=       1 DoRegI=T DoRafI=F ISym2E= 1 JSym2E=1.
 LinEq1:  Iter=  0 NonCon=     1 RMS=3.66D-03 Max=8.71D-02
 AX will form     1 AO Fock derivatives at one time.
 LinEq1:  Iter=  1 NonCon=     1 RMS=1.18D-03 Max=2.20D-02
 LinEq1:  Iter=  2 NonCon=     1 RMS=4.96D-04 Max=1.74D-02
 LinEq1:  Iter=  3 NonCon=     1 RMS=2.46D-04 Max=8.52D-03
 LinEq1:  Iter=  4 NonCon=     1 RMS=8.84D-05 Max=2.98D-03
 LinEq1:  Iter=  5 NonCon=     1 RMS=3.12D-05 Max=1.20D-03
 LinEq1:  Iter=  6 NonCon=     1 RMS=1.11D-05 Max=3.39D-04
 LinEq1:  Iter=  7 NonCon=     1 RMS=4.17D-06 Max=9.56D-05
 LinEq1:  Iter=  8 NonCon=     1 RMS=1.17D-06 Max=1.88D-05
 LinEq1:  Iter=  9 NonCon=     1 RMS=4.34D-07 Max=9.48D-06
 LinEq1:  Iter= 10 NonCon=     1 RMS=1.41D-07 Max=2.96D-06
 LinEq1:  Iter= 11 NonCon=     1 RMS=5.52D-08 Max=1.15D-06
 LinEq1:  Iter= 12 NonCon=     1 RMS=1.82D-08 Max=6.45D-07
 LinEq1:  Iter= 13 NonCon=     1 RMS=6.93D-09 Max=1.77D-07
 LinEq1:  Iter= 14 NonCon=     1 RMS=2.28D-09 Max=6.79D-08
 LinEq1:  Iter= 15 NonCon=     1 RMS=6.80D-10 Max=2.38D-08
 LinEq1:  Iter= 16 NonCon=     1 RMS=2.41D-10 Max=6.80D-09
 LinEq1:  Iter= 17 NonCon=     1 RMS=8.45D-11 Max=1.98D-09
 LinEq1:  Iter= 18 NonCon=     0 RMS=1.88D-11 Max=1.95D-10
 Linear equations converged to 1.000D-10 1.000D-09 after    18 iterations.
 End of Minotr Frequency-dependent properties file   721 does not exist.
 End of Minotr Frequency-dependent properties file   722 does not exist.
 Leave Link 1002 at Fri Dec  3 14:32:31 2021, MaxMem=  498073600 cpu:     555.2
 (Enter /apps/software//g09/l601.exe)
 Copying SCF densities to generalized density rwf, IOpCl= 0 IROHF=0.

 **********************************************************************

            Population analysis using the MP2 density.

 **********************************************************************

 Orbital symmetries:
       Occupied  (A') (A') (A') (A') (A') (A') (A') (A') (A') (A')
                 (A') (A") (A') (A') (A') (A') (A') (A') (A') (A')
                 (A') (A') (A') (A') (A') (A') (A') (A") (A') (A")
                 (A') (A') (A") (A') (A") (A")
       Virtual   (A') (A') (A") (A') (A') (A') (A") (A") (A') (A')
                 (A') (A") (A") (A') (A") (A') (A') (A') (A') (A')
                 (A") (A") (A') (A') (A') (A") (A') (A') (A") (A')
                 (A") (A') (A') (A') (A') (A') (A') (A') (A') (A')
                 (A') (A') (A") (A") (A') (A') (A') (A') (A') (A')
                 (A') (A') (A') (A') (A') (A') (A') (A") (A') (A')
                 (A') (A') (A") (A') (A") (A') (A') (A") (A') (A")
                 (A") (A') (A") (A') (A") (A') (A') (A') (A') (A')
                 (A') (A') (A') (A') (A') (A') (A') (A") (A') (A')
                 (A') (A") (A') (A') (A') (A") (A') (A") (A') (A")
                 (A") (A') (A") (A') (A") (A") (A') (A') (A') (A')
                 (A') (A") (A') (A') (A") (A') (A') (A") (A") (A')
                 (A') (A') (A') (A") (A') (A") (A") (A') (A') (A')
                 (A') (A") (A") (A') (A') (A') (A') (A') (A") (A")
                 (A') (A') (A") (A") (A") (A') (A') (A') (A') (A')
                 (A') (A') (A') (A') (A') (A') (A") (A') (A') (A")
                 (A') (A") (A") (A') (A') (A") (A") (A') (A") (A')
                 (A") (A') (A') (A') (A') (A") (A') (A') (A') (A')
                 (A') (A') (A') (A') (A') (A') (A') (A') (A') (A")
                 (A') (A') (A') (A') (A') (A') (A') (A') (A') (A')
                 (A") (A') (A') (A') (A')
 The electronic state is 1-A'.
 Alpha  occ. eigenvalues -- -104.84189 -20.59300 -11.41827 -11.28119 -11.27411
 Alpha  occ. eigenvalues --  -11.27254 -11.27247 -11.26219 -11.26189 -10.56835
 Alpha  occ. eigenvalues --   -8.03638  -8.03363  -8.03357  -1.45188  -1.18980
 Alpha  occ. eigenvalues --   -1.12300  -1.05938  -1.04701  -0.89882  -0.85819
 Alpha  occ. eigenvalues --   -0.78867  -0.73308  -0.68396  -0.67907  -0.64088
 Alpha  occ. eigenvalues --   -0.62851  -0.61886  -0.60886  -0.54624  -0.52447
 Alpha  occ. eigenvalues --   -0.52408  -0.46963  -0.46371  -0.45033  -0.37050
 Alpha  occ. eigenvalues --   -0.36429
 Alpha virt. eigenvalues --    0.03194   0.04391   0.04508   0.05140   0.06981
 Alpha virt. eigenvalues --    0.07300   0.09124   0.10431   0.10801   0.11668
 Alpha virt. eigenvalues --    0.12484   0.13539   0.13855   0.15333   0.15349
 Alpha virt. eigenvalues --    0.15726   0.16347   0.16801   0.17602   0.17631
 Alpha virt. eigenvalues --    0.17691   0.19193   0.20051   0.20455   0.20904
 Alpha virt. eigenvalues --    0.21206   0.21291   0.22010   0.22194   0.22894
 Alpha virt. eigenvalues --    0.23011   0.24370   0.26736   0.27214   0.28337
 Alpha virt. eigenvalues --    0.29838   0.31038   0.31534   0.32248   0.33105
 Alpha virt. eigenvalues --    0.34642   0.35161   0.35263   0.38950   0.39054
 Alpha virt. eigenvalues --    0.39884   0.40135   0.41311   0.41855   0.42869
 Alpha virt. eigenvalues --    0.45502   0.46434   0.47448   0.48543   0.52506
 Alpha virt. eigenvalues --    0.53014   0.58154   0.60877   0.62150   0.63491
 Alpha virt. eigenvalues --    0.66394   0.69596   0.70078   0.70660   0.71466
 Alpha virt. eigenvalues --    0.71729   0.72574   0.73926   0.74717   0.76745
 Alpha virt. eigenvalues --    0.80374   0.80504   0.81808   0.82885   0.87200
 Alpha virt. eigenvalues --    0.87350   0.92169   0.92357   0.92763   0.94922
 Alpha virt. eigenvalues --    0.98122   1.00078   1.02083   1.03773   1.05011
 Alpha virt. eigenvalues --    1.05247   1.07684   1.08017   1.09248   1.10463
 Alpha virt. eigenvalues --    1.11124   1.14398   1.15757   1.16761   1.19184
 Alpha virt. eigenvalues --    1.20166   1.20608   1.22016   1.23761   1.29544
 Alpha virt. eigenvalues --    1.30775   1.31419   1.35545   1.35683   1.36695
 Alpha virt. eigenvalues --    1.39992   1.40290   1.44558   1.51124   1.52849
 Alpha virt. eigenvalues --    1.62181   1.65080   1.73336   1.76357   1.76383
 Alpha virt. eigenvalues --    1.76707   1.78092   1.81008   1.82140   1.85900
 Alpha virt. eigenvalues --    1.89555   1.89853   1.93923   1.96335   2.01397
 Alpha virt. eigenvalues --    2.01430   2.03134   2.05358   2.09332   2.12648
 Alpha virt. eigenvalues --    2.20611   2.20636   2.21125   2.22063   2.22548
 Alpha virt. eigenvalues --    2.25179   2.28655   2.32218   2.32337   2.35457
 Alpha virt. eigenvalues --    2.41261   2.49845   2.59076   2.61133   2.63990
 Alpha virt. eigenvalues --    2.70195   2.73564   2.73838   2.79726   2.80100
 Alpha virt. eigenvalues --    2.84714   2.94070   2.96562   2.97050   2.99243
 Alpha virt. eigenvalues --    2.99898   3.01493   3.02982   3.03280   3.04521
 Alpha virt. eigenvalues --    3.06838   3.16488   3.17707   3.19735   3.20472
 Alpha virt. eigenvalues --    3.22934   3.27236   3.28722   3.31331   3.32927
 Alpha virt. eigenvalues --    3.45592   3.48062   3.60702   3.61664   3.74356
 Alpha virt. eigenvalues --    3.74814   3.77614   3.87580   3.90604   3.91658
 Alpha virt. eigenvalues --    4.02326   4.03603   4.23132   4.38875   4.42599
 Alpha virt. eigenvalues --    4.54426   4.55534   4.67886   5.24926   5.58292
 Alpha virt. eigenvalues --    5.71834   6.27119  10.48538  24.72306  24.96129
 Alpha virt. eigenvalues --   25.08739  25.09807  25.19971  25.24126  25.33258
 Alpha virt. eigenvalues --   26.68413  26.96775  27.34483  51.66990 219.35188
          Condensed to atoms (all electrons):
              1          2          3          4          5          6
     1  C   12.218818  -5.660176   4.606591  -6.243095   6.169872  -5.379781
     2  C   -5.660176  15.820566 -10.106414   6.123670  -6.992648   6.614809
     3  C    4.606591 -10.106414  25.404258  -7.933454   2.191614  -7.233171
     4  C   -6.243095   6.123670  -7.933454  33.317824 -15.218989   4.620417
     5  C    6.169872  -6.992648   2.191614 -15.218989  36.583261 -15.017268
     6  C   -5.379781   6.614809  -7.233171   4.620417 -15.017268  21.254634
     7  H    0.299544  -0.277785   0.283482  -0.788697   1.440771  -0.716222
     8  H   -0.298573   0.152072  -0.062469   0.247412  -0.374971   0.674616
     9  H    0.602788  -0.243165   0.121998  -0.094209   0.153665  -0.240776
    10  H   -0.298569   0.645727  -0.237552   0.174373  -0.091947   0.121758
    11  H    0.208542  -0.492099   0.810481  -0.385590   0.457112  -0.201985
    12  C    0.259277   0.638573  -2.354105 -10.779966  -1.649774   2.628718
    13  Cl  -0.009244  -0.130094   0.263166   0.935766   0.058942  -0.894592
    14  O    0.033125  -0.055493   0.414583  -0.462428  -0.185941  -0.104098
              7          8          9         10         11         12
     1  C    0.299544  -0.298573   0.602788  -0.298569   0.208542   0.259277
     2  C   -0.277785   0.152072  -0.243165   0.645727  -0.492099   0.638573
     3  C    0.283482  -0.062469   0.121998  -0.237552   0.810481  -2.354105
     4  C   -0.788697   0.247412  -0.094209   0.174373  -0.385590 -10.779966
     5  C    1.440771  -0.374971   0.153665  -0.091947   0.457112  -1.649774
     6  C   -0.716222   0.674616  -0.240776   0.121758  -0.201985   2.628718
     7  H    0.771485  -0.059891   0.005861  -0.004537   0.014218  -0.320790
     8  H   -0.059891   0.569670  -0.018289   0.004598  -0.002405  -0.038331
     9  H    0.005861  -0.018289   0.546994  -0.018773   0.004664  -0.011263
    10  H   -0.004537   0.004598  -0.018773   0.565482  -0.028664  -0.045220
    11  H    0.014218  -0.002405   0.004664  -0.028664   0.580246  -0.200433
    12  C   -0.320790  -0.038331  -0.011263  -0.045220  -0.200433  20.464677
    13  Cl   0.162588  -0.010956   0.000408   0.002982   0.002980  -1.271379
    14  O    0.029042  -0.002336   0.000319  -0.002938   0.025440   0.130241
             13         14
     1  C   -0.009244   0.033125
     2  C   -0.130094  -0.055493
     3  C    0.263166   0.414583
     4  C    0.935766  -0.462428
     5  C    0.058942  -0.185941
     6  C   -0.894592  -0.104098
     7  H    0.162588   0.029042
     8  H   -0.010956  -0.002336
     9  H    0.000408   0.000319
    10  H    0.002982  -0.002938
    11  H    0.002980   0.025440
    12  C   -1.271379   0.130241
    13  Cl  17.554963  -0.068940
    14  O   -0.068940   8.314479
 Mulliken atomic charges:
              1
     1  C   -0.509118
     2  C   -0.037546
     3  C   -0.169007
     4  C    2.486966
     5  C   -1.523699
     6  C   -0.127057
     7  H    0.160930
     8  H    0.219853
     9  H    0.189777
    10  H    0.213279
    11  H    0.207493
    12  C   -1.450225
    13  Cl   0.403410
    14  O   -0.065056
 Sum of Mulliken atomic charges =   0.00000
 Mulliken charges with hydrogens summed into heavy atoms:
              1
     1  C   -0.319341
     2  C    0.175733
     3  C    0.038486
     4  C    2.486966
     5  C   -1.362769
     6  C    0.092796
    12  C   -1.450225
    13  Cl   0.403410
    14  O   -0.065056
 Sum of Mulliken charges with hydrogens summed into heavy atoms =   0.00000
 Electronic spatial extent (au):  <R**2>=           1476.4220
 Charge=              0.0000 electrons
 Dipole moment (field-independent basis, Debye):
    X=              3.6880    Y=              1.2823    Z=              0.0000  Tot=              3.9046
 Quadrupole moment (field-independent basis, Debye-Ang):
   XX=            -60.2746   YY=            -55.5556   ZZ=            -62.1794
   XY=              0.1014   XZ=              0.0000   YZ=              0.0000
 Traceless Quadrupole moment (field-independent basis, Debye-Ang):
   XX=             -0.9381   YY=              3.7810   ZZ=             -2.8429
   XY=              0.1014   XZ=              0.0000   YZ=              0.0000
 Octapole moment (field-independent basis, Debye-Ang**2):
  XXX=             26.3836  YYY=              6.8244  ZZZ=              0.0000  XYY=              5.9720
  XXY=              1.5250  XXZ=              0.0000  XZZ=            -11.7671  YZZ=             -4.7037
  YYZ=              0.0000  XYZ=              0.0000
 Hexadecapole moment (field-independent basis, Debye-Ang**3):
 XXXX=          -1117.3822 YYYY=           -715.6842 ZZZZ=            -72.4111 XXXY=           -203.2067
 XXXZ=              0.0000 YYYX=           -204.9331 YYYZ=              0.0000 ZZZX=              0.0000
 ZZZY=              0.0000 XXYY=           -304.3226 XXZZ=           -214.7229 YYZZ=           -151.7230
 XXYZ=              0.0000 YYXZ=              0.0000 ZZXY=            -79.2279
 N-N= 4.598841625721D+02 E-N=-2.816398608757D+03  KE= 8.036889053069D+02
 Symmetry A'   KE= 7.475543356272D+02
 Symmetry A"   KE= 5.613456967974D+01
 No NMR shielding tensors so no spin-rotation constants.
 Leave Link  601 at Fri Dec  3 14:32:31 2021, MaxMem=  498073600 cpu:       2.8
 (Enter /apps/software//g09/l9999.exe)
 1\1\GINC-DLT06\SP\RMP2-FC\6-311++G(d,p)\C7H5Cl1O1\ITAMAR\03-Dec-2021\0
 \\#P MP2/6-311++G** DENSITY=MP2\\X=COCl\\0,1\C,0,2.594516,1.266902,0.\
 C,0,1.503343,2.13728,0.\C,0,0.210882,1.630118,0.\C,0,0.,0.241608,0.\C,
 0,1.097026,-0.627421,0.\C,0,2.389263,-0.111751,0.\H,0,0.938262,-1.6966
 6,0.\H,0,3.236054,-0.78772,0.\H,0,3.603378,1.663658,0.\H,0,1.66154,3.2
 09273,0.\H,0,-0.64589,2.291773,0.\C,0,-1.412284,-0.212076,0.\Cl,0,-1.6
 52515,-2.028579,0.\O,0,-2.374633,0.482195,0.\\Version=EM64L-G09RevA.02
 \State=1-A'\HF=-802.4486556\MP2=-803.7404586\RMSD=5.549e-09\Dipole=1.4
 509897,0.504477,0.\Quadrupole=-0.6974286,2.8110485,-2.1136199,0.075397
 9,0.,0.\PG=CS [SG(C7H5Cl1O1)]\\@


 You don't have to suffer to be a poet.
 Adolescence is enough suffering for anyone.
                             -- John Ciardi
 Job cpu time:  0 days  0 hours 26 minutes 21.9 seconds.
 File lengths (MBytes):  RWF=     37 Int=      0 D2E=      0 Chk=      5 Scr=      1
 Normal termination of Gaussian 09 at Fri Dec  3 14:32:32 2021.
