X=COCl                                                                  
SP        RMP2-FC                                                     6-311++G(d,p)       
Number of atoms                            I               14
Info1-9                                    I   N=           9
          25          23           0           0           0         110
           1           2           1
Charge                                     I                0
Multiplicity                               I                1
Number of electrons                        I               72
Number of alpha electrons                  I               36
Number of beta electrons                   I               36
Number of basis functions                  I              241
Number of independent functions            I              241
Number of point charges in /Mol/           I                0
Number of translation vectors              I                0
Atomic numbers                             I   N=          14
           6           6           6           6           6           6
           1           1           1           1           1           6
          17           8
Nuclear charges                            R   N=          14
  6.00000000E+00  6.00000000E+00  6.00000000E+00  6.00000000E+00  6.00000000E+00
  6.00000000E+00  1.00000000E+00  1.00000000E+00  1.00000000E+00  1.00000000E+00
  1.00000000E+00  6.00000000E+00  1.70000000E+01  8.00000000E+00
Current cartesian coordinates              R   N=          42
  4.90292469E+00  2.39409782E+00  0.00000000E+00  2.84090655E+00  4.03887387E+00
  0.00000000E+00  3.98509226E-01  3.08047658E+00  0.00000000E+00 -7.86098787E-17
  4.56572952E-01  0.00000000E+00  2.07307870E+00 -1.18565386E+00  0.00000000E+00
  4.51505273E+00 -2.11178785E-01  0.00000000E+00  1.77305822E+00 -3.20622274E+00
  0.00000000E+00  6.11525581E+00 -1.48857507E+00  0.00000000E+00  6.80939757E+00
  3.14385800E+00  0.00000000E+00  3.13985556E+00  6.06464706E+00  0.00000000E+00
 -1.22055521E+00  4.33082333E+00  0.00000000E+00 -2.66882998E+00 -4.00765559E-01
  0.00000000E+00 -3.12280078E+00 -3.83345875E+00  0.00000000E+00 -4.48740604E+00
  9.11216493E-01  0.00000000E+00
Force Field                                I                0
Int Atom Types                             I   N=          14
           0           0           0           0           0           0
           0           0           0           0           0           0
           0           0
MM charges                                 R   N=          14
  0.00000000E+00  0.00000000E+00  0.00000000E+00  0.00000000E+00  0.00000000E+00
  0.00000000E+00  0.00000000E+00  0.00000000E+00  0.00000000E+00  0.00000000E+00
  0.00000000E+00  0.00000000E+00  0.00000000E+00  0.00000000E+00
Integer atomic weights                     I   N=          14
          12          12          12          12          12          12
           1           1           1           1           1          12
          35          16
Real atomic weights                        R   N=          14
  1.20000000E+01  1.20000000E+01  1.20000000E+01  1.20000000E+01  1.20000000E+01
  1.20000000E+01  1.00782504E+00  1.00782504E+00  1.00782504E+00  1.00782504E+00
  1.00782504E+00  1.20000000E+01  3.49688527E+01  1.59949146E+01
Atom fragment info                         I   N=          14
           0           0           0           0           0           0
           0           0           0           0           0           0
           0           0
Atom residue num                           I   N=          14
           0           0           0           0           0           0
           0           0           0           0           0           0
           0           0
Nuclear spins                              I   N=          14
           0           0           0           0           0           0
           1           1           1           1           1           0
           3           0
Nuclear ZEff                               R   N=          14
 -3.60000000E+00 -3.60000000E+00 -3.60000000E+00 -3.60000000E+00 -3.60000000E+00
 -3.60000000E+00 -1.00000000E+00 -1.00000000E+00 -1.00000000E+00 -1.00000000E+00
 -1.00000000E+00 -3.60000000E+00 -1.42400000E+01 -5.60000000E+00
Nuclear QMom                               R   N=          14
  0.00000000E+00  0.00000000E+00  0.00000000E+00  0.00000000E+00  0.00000000E+00
  0.00000000E+00  0.00000000E+00  0.00000000E+00  0.00000000E+00  0.00000000E+00
  0.00000000E+00  0.00000000E+00 -8.16500000E+00  0.00000000E+00
Nuclear GFac                               R   N=          14
  0.00000000E+00  0.00000000E+00  0.00000000E+00  0.00000000E+00  0.00000000E+00
  0.00000000E+00  2.79284600E+00  2.79284600E+00  2.79284600E+00  2.79284600E+00
  2.79284600E+00  0.00000000E+00  8.21874000E-01  0.00000000E+00
MicOpt                                     I   N=          14
          -1          -1          -1          -1          -1          -1
          -1          -1          -1          -1          -1          -1
          -1          -1
Number of contracted shells                I               86
Number of primitive shells                 I              164
Pure/Cartesian d shells                    I                0
Pure/Cartesian f shells                    I                0
Highest angular momentum                   I                2
Largest degree of contraction              I                6
Shell types                                I   N=          86
           0          -1          -1          -1          -1          -2
           0          -1          -1          -1          -1          -2
           0          -1          -1          -1          -1          -2
           0          -1          -1          -1          -1          -2
           0          -1          -1          -1          -1          -2
           0          -1          -1          -1          -1          -2
           0           0           0           0           1           0
           0           0           0           1           0           0
           0           0           1           0           0           0
           0           1           0           0           0           0
           1           0          -1          -1          -1          -1
          -2           0           0           0           0           0
           0          -1           1           1           1           1
           1          -2           0          -1          -1          -1
          -1          -2
Number of primitives per shell             I   N=          86
           6           3           1           1           1           1
           6           3           1           1           1           1
           6           3           1           1           1           1
           6           3           1           1           1           1
           6           3           1           1           1           1
           6           3           1           1           1           1
           3           1           1           1           1           3
           1           1           1           1           3           1
           1           1           1           3           1           1
           1           1           3           1           1           1
           1           6           3           1           1           1
           1           6           3           1           1           1
           1           1           5           2           1           1
           1           1           6           3           1           1
           1           1
Shell to atom map                          I   N=          86
           1           1           1           1           1           1
           2           2           2           2           2           2
           3           3           3           3           3           3
           4           4           4           4           4           4
           5           5           5           5           5           5
           6           6           6           6           6           6
           7           7           7           7           7           8
           8           8           8           8           9           9
           9           9           9          10          10          10
          10          10          11          11          11          11
          11          12          12          12          12          12
          12          13          13          13          13          13
          13          13          13          13          13          13
          13          13          14          14          14          14
          14          14
Primitive exponents                        R   N=         164
  4.56324000E+03  6.82024000E+02  1.54973000E+02  4.44553000E+01  1.30290000E+01
  1.82773000E+00  2.09642000E+01  4.80331000E+00  1.45933000E+00  4.83456000E-01
  1.45585000E-01  4.38000000E-02  6.26000000E-01  4.56324000E+03  6.82024000E+02
  1.54973000E+02  4.44553000E+01  1.30290000E+01  1.82773000E+00  2.09642000E+01
  4.80331000E+00  1.45933000E+00  4.83456000E-01  1.45585000E-01  4.38000000E-02
  6.26000000E-01  4.56324000E+03  6.82024000E+02  1.54973000E+02  4.44553000E+01
  1.30290000E+01  1.82773000E+00  2.09642000E+01  4.80331000E+00  1.45933000E+00
  4.83456000E-01  1.45585000E-01  4.38000000E-02  6.26000000E-01  4.56324000E+03
  6.82024000E+02  1.54973000E+02  4.44553000E+01  1.30290000E+01  1.82773000E+00
  2.09642000E+01  4.80331000E+00  1.45933000E+00  4.83456000E-01  1.45585000E-01
  4.38000000E-02  6.26000000E-01  4.56324000E+03  6.82024000E+02  1.54973000E+02
  4.44553000E+01  1.30290000E+01  1.82773000E+00  2.09642000E+01  4.80331000E+00
  1.45933000E+00  4.83456000E-01  1.45585000E-01  4.38000000E-02  6.26000000E-01
  4.56324000E+03  6.82024000E+02  1.54973000E+02  4.44553000E+01  1.30290000E+01
  1.82773000E+00  2.09642000E+01  4.80331000E+00  1.45933000E+00  4.83456000E-01
  1.45585000E-01  4.38000000E-02  6.26000000E-01  3.38650000E+01  5.09479000E+00
  1.15879000E+00  3.25840000E-01  1.02741000E-01  3.60000000E-02  7.50000000E-01
  3.38650000E+01  5.09479000E+00  1.15879000E+00  3.25840000E-01  1.02741000E-01
  3.60000000E-02  7.50000000E-01  3.38650000E+01  5.09479000E+00  1.15879000E+00
  3.25840000E-01  1.02741000E-01  3.60000000E-02  7.50000000E-01  3.38650000E+01
  5.09479000E+00  1.15879000E+00  3.25840000E-01  1.02741000E-01  3.60000000E-02
  7.50000000E-01  3.38650000E+01  5.09479000E+00  1.15879000E+00  3.25840000E-01
  1.02741000E-01  3.60000000E-02  7.50000000E-01  4.56324000E+03  6.82024000E+02
  1.54973000E+02  4.44553000E+01  1.30290000E+01  1.82773000E+00  2.09642000E+01
  4.80331000E+00  1.45933000E+00  4.83456000E-01  1.45585000E-01  4.38000000E-02
  6.26000000E-01  1.05819000E+05  1.58720000E+04  3.61965000E+03  1.03080000E+03
  3.39908000E+02  1.24538000E+02  1.24538000E+02  4.95135000E+01  2.08056000E+01
  6.58346000E+00  2.56468000E+00  5.59763000E-01  1.83273000E-01  4.83000000E-02
  5.89776000E+02  1.39849000E+02  4.51413000E+01  1.68733000E+01  2.77152000E+00
  6.74110000E+00  2.77152000E+00  1.02387000E+00  3.81368000E-01  1.09437000E-01
  7.50000000E-01  8.58850000E+03  1.29723000E+03  2.99296000E+02  8.73771000E+01
  2.56789000E+01  3.74004000E+00  4.21175000E+01  9.62837000E+00  2.85332000E+00
  9.05661000E-01  2.55611000E-01  8.45000000E-02  1.29200000E+00
Contraction coefficients                   R   N=         164
  1.96665025E-03  1.52306019E-02  7.61269097E-02  2.60801033E-01  6.16462078E-01
  2.21006028E-01  1.14660081E-01  9.19999648E-01 -3.03068213E-03  1.00000000E+00
  1.00000000E+00  1.00000000E+00  1.00000000E+00  1.96665025E-03  1.52306019E-02
  7.61269097E-02  2.60801033E-01  6.16462078E-01  2.21006028E-01  1.14660081E-01
  9.19999648E-01 -3.03068213E-03  1.00000000E+00  1.00000000E+00  1.00000000E+00
  1.00000000E+00  1.96665025E-03  1.52306019E-02  7.61269097E-02  2.60801033E-01
  6.16462078E-01  2.21006028E-01  1.14660081E-01  9.19999648E-01 -3.03068213E-03
  1.00000000E+00  1.00000000E+00  1.00000000E+00  1.00000000E+00  1.96665025E-03
  1.52306019E-02  7.61269097E-02  2.60801033E-01  6.16462078E-01  2.21006028E-01
  1.14660081E-01  9.19999648E-01 -3.03068213E-03  1.00000000E+00  1.00000000E+00
  1.00000000E+00  1.00000000E+00  1.96665025E-03  1.52306019E-02  7.61269097E-02
  2.60801033E-01  6.16462078E-01  2.21006028E-01  1.14660081E-01  9.19999648E-01
 -3.03068213E-03  1.00000000E+00  1.00000000E+00  1.00000000E+00  1.00000000E+00
  1.96665025E-03  1.52306019E-02  7.61269097E-02  2.60801033E-01  6.16462078E-01
  2.21006028E-01  1.14660081E-01  9.19999648E-01 -3.03068213E-03  1.00000000E+00
  1.00000000E+00  1.00000000E+00  1.00000000E+00  2.54938145E-02  1.90373109E-01
  8.52161486E-01  1.00000000E+00  1.00000000E+00  1.00000000E+00  1.00000000E+00
  2.54938145E-02  1.90373109E-01  8.52161486E-01  1.00000000E+00  1.00000000E+00
  1.00000000E+00  1.00000000E+00  2.54938145E-02  1.90373109E-01  8.52161486E-01
  1.00000000E+00  1.00000000E+00  1.00000000E+00  1.00000000E+00  2.54938145E-02
  1.90373109E-01  8.52161486E-01  1.00000000E+00  1.00000000E+00  1.00000000E+00
  1.00000000E+00  2.54938145E-02  1.90373109E-01  8.52161486E-01  1.00000000E+00
  1.00000000E+00  1.00000000E+00  1.00000000E+00  1.96665025E-03  1.52306019E-02
  7.61269097E-02  2.60801033E-01  6.16462078E-01  2.21006028E-01  1.14660081E-01
  9.19999648E-01 -3.03068213E-03  1.00000000E+00  1.00000000E+00  1.00000000E+00
  1.00000000E+00  7.38000247E-04  5.71800191E-03  2.94950099E-02  1.17286039E-01
  3.62949121E-01  5.84149195E-01  1.34176973E-01  6.24249876E-01  2.91755942E-01
  1.00000000E+00  1.00000000E+00  1.00000000E+00  1.00000000E+00  1.00000000E+00
  3.66556935E-03  2.83679194E-02  1.24756603E-01  3.39654631E-01  7.47585963E-01
 -1.57224381E+00  9.92388882E-01  1.00000000E+00  1.00000000E+00  1.00000000E+00
  1.00000000E+00  1.89515008E-03  1.43859006E-02  7.07320031E-02  2.40001011E-01
  5.94797026E-01  2.80802012E-01  1.13889012E-01  9.20811101E-01 -3.27447036E-03
  1.00000000E+00  1.00000000E+00  1.00000000E+00  1.00000000E+00
P(S=P) Contraction coefficients            R   N=         164
  0.00000000E+00  0.00000000E+00  0.00000000E+00  0.00000000E+00  0.00000000E+00
  0.00000000E+00  4.02486927E-02  2.37593957E-01  8.15853851E-01  1.00000000E+00
  1.00000000E+00  1.00000000E+00  0.00000000E+00  0.00000000E+00  0.00000000E+00
  0.00000000E+00  0.00000000E+00  0.00000000E+00  0.00000000E+00  4.02486927E-02
  2.37593957E-01  8.15853851E-01  1.00000000E+00  1.00000000E+00  1.00000000E+00
  0.00000000E+00  0.00000000E+00  0.00000000E+00  0.00000000E+00  0.00000000E+00
  0.00000000E+00  0.00000000E+00  4.02486927E-02  2.37593957E-01  8.15853851E-01
  1.00000000E+00  1.00000000E+00  1.00000000E+00  0.00000000E+00  0.00000000E+00
  0.00000000E+00  0.00000000E+00  0.00000000E+00  0.00000000E+00  0.00000000E+00
  4.02486927E-02  2.37593957E-01  8.15853851E-01  1.00000000E+00  1.00000000E+00
  1.00000000E+00  0.00000000E+00  0.00000000E+00  0.00000000E+00  0.00000000E+00
  0.00000000E+00  0.00000000E+00  0.00000000E+00  4.02486927E-02  2.37593957E-01
  8.15853851E-01  1.00000000E+00  1.00000000E+00  1.00000000E+00  0.00000000E+00
  0.00000000E+00  0.00000000E+00  0.00000000E+00  0.00000000E+00  0.00000000E+00
  0.00000000E+00  4.02486927E-02  2.37593957E-01  8.15853851E-01  1.00000000E+00
  1.00000000E+00  1.00000000E+00  0.00000000E+00  0.00000000E+00  0.00000000E+00
  0.00000000E+00  0.00000000E+00  0.00000000E+00  0.00000000E+00  0.00000000E+00
  0.00000000E+00  0.00000000E+00  0.00000000E+00  0.00000000E+00  0.00000000E+00
  0.00000000E+00  0.00000000E+00  0.00000000E+00  0.00000000E+00  0.00000000E+00
  0.00000000E+00  0.00000000E+00  0.00000000E+00  0.00000000E+00  0.00000000E+00
  0.00000000E+00  0.00000000E+00  0.00000000E+00  0.00000000E+00  0.00000000E+00
  0.00000000E+00  0.00000000E+00  0.00000000E+00  0.00000000E+00  0.00000000E+00
  0.00000000E+00  0.00000000E+00  0.00000000E+00  0.00000000E+00  0.00000000E+00
  0.00000000E+00  0.00000000E+00  0.00000000E+00  0.00000000E+00  4.02486927E-02
  2.37593957E-01  8.15853851E-01  1.00000000E+00  1.00000000E+00  1.00000000E+00
  0.00000000E+00  0.00000000E+00  0.00000000E+00  0.00000000E+00  0.00000000E+00
  0.00000000E+00  0.00000000E+00  0.00000000E+00  0.00000000E+00  0.00000000E+00
  0.00000000E+00  0.00000000E+00  0.00000000E+00  0.00000000E+00  1.00000000E+00
  0.00000000E+00  0.00000000E+00  0.00000000E+00  0.00000000E+00  0.00000000E+00
  0.00000000E+00  0.00000000E+00  0.00000000E+00  0.00000000E+00  0.00000000E+00
  0.00000000E+00  0.00000000E+00  0.00000000E+00  0.00000000E+00  0.00000000E+00
  0.00000000E+00  0.00000000E+00  3.65113974E-02  2.37152983E-01  8.19701941E-01
  1.00000000E+00  1.00000000E+00  1.00000000E+00  0.00000000E+00
Coordinates of each shell                  R   N=         258
  4.90292480E+00  2.39409751E+00  0.00000000E+00  4.90292480E+00  2.39409751E+00
  0.00000000E+00  4.90292480E+00  2.39409751E+00  0.00000000E+00  4.90292480E+00
  2.39409751E+00  0.00000000E+00  4.90292480E+00  2.39409751E+00  0.00000000E+00
  4.90292480E+00  2.39409751E+00  0.00000000E+00  2.84090676E+00  4.03887368E+00
  0.00000000E+00  2.84090676E+00  4.03887368E+00  0.00000000E+00  2.84090676E+00
  4.03887368E+00  0.00000000E+00  2.84090676E+00  4.03887368E+00  0.00000000E+00
  2.84090676E+00  4.03887368E+00  0.00000000E+00  2.84090676E+00  4.03887368E+00
  0.00000000E+00  3.98509377E-01  3.08047654E+00  0.00000000E+00  3.98509377E-01
  3.08047654E+00  0.00000000E+00  3.98509377E-01  3.08047654E+00  0.00000000E+00
  3.98509377E-01  3.08047654E+00  0.00000000E+00  3.98509377E-01  3.08047654E+00
  0.00000000E+00  3.98509377E-01  3.08047654E+00  0.00000000E+00  0.00000000E+00
  4.56572925E-01  0.00000000E+00  0.00000000E+00  4.56572925E-01  0.00000000E+00
  0.00000000E+00  4.56572925E-01  0.00000000E+00  0.00000000E+00  4.56572925E-01
  0.00000000E+00  0.00000000E+00  4.56572925E-01  0.00000000E+00  0.00000000E+00
  4.56572925E-01  0.00000000E+00  2.07307861E+00 -1.18565401E+00  0.00000000E+00
  2.07307861E+00 -1.18565401E+00  0.00000000E+00  2.07307861E+00 -1.18565401E+00
  0.00000000E+00  2.07307861E+00 -1.18565401E+00  0.00000000E+00  2.07307861E+00
 -1.18565401E+00  0.00000000E+00  2.07307861E+00 -1.18565401E+00  0.00000000E+00
  4.51505269E+00 -2.11179071E-01  0.00000000E+00  4.51505269E+00 -2.11179071E-01
  0.00000000E+00  4.51505269E+00 -2.11179071E-01  0.00000000E+00  4.51505269E+00
 -2.11179071E-01  0.00000000E+00  4.51505269E+00 -2.11179071E-01  0.00000000E+00
  4.51505269E+00 -2.11179071E-01  0.00000000E+00  1.77305801E+00 -3.20622287E+00
  0.00000000E+00  1.77305801E+00 -3.20622287E+00  0.00000000E+00  1.77305801E+00
 -3.20622287E+00  0.00000000E+00  1.77305801E+00 -3.20622287E+00  0.00000000E+00
  1.77305801E+00 -3.20622287E+00  0.00000000E+00  6.11525570E+00 -1.48857545E+00
  0.00000000E+00  6.11525570E+00 -1.48857545E+00  0.00000000E+00  6.11525570E+00
 -1.48857545E+00  0.00000000E+00  6.11525570E+00 -1.48857545E+00  0.00000000E+00
  6.11525570E+00 -1.48857545E+00  0.00000000E+00  6.80939773E+00  3.14385758E+00
  0.00000000E+00  6.80939773E+00  3.14385758E+00  0.00000000E+00  6.80939773E+00
  3.14385758E+00  0.00000000E+00  6.80939773E+00  3.14385758E+00  0.00000000E+00
  6.80939773E+00  3.14385758E+00  0.00000000E+00  3.13985588E+00  6.06464685E+00
  0.00000000E+00  3.13985588E+00  6.06464685E+00  0.00000000E+00  3.13985588E+00
  6.06464685E+00  0.00000000E+00  3.13985588E+00  6.06464685E+00  0.00000000E+00
  3.13985588E+00  6.06464685E+00  0.00000000E+00 -1.22055499E+00  4.33082337E+00
  0.00000000E+00 -1.22055499E+00  4.33082337E+00  0.00000000E+00 -1.22055499E+00
  4.33082337E+00  0.00000000E+00 -1.22055499E+00  4.33082337E+00  0.00000000E+00
 -1.22055499E+00  4.33082337E+00  0.00000000E+00 -2.66883003E+00 -4.00765432E-01
  0.00000000E+00 -2.66883003E+00 -4.00765432E-01  0.00000000E+00 -2.66883003E+00
 -4.00765432E-01  0.00000000E+00 -2.66883003E+00 -4.00765432E-01  0.00000000E+00
 -2.66883003E+00 -4.00765432E-01  0.00000000E+00 -2.66883003E+00 -4.00765432E-01
  0.00000000E+00 -3.12280103E+00 -3.83345860E+00  0.00000000E+00 -3.12280103E+00
 -3.83345860E+00  0.00000000E+00 -3.12280103E+00 -3.83345860E+00  0.00000000E+00
 -3.12280103E+00 -3.83345860E+00  0.00000000E+00 -3.12280103E+00 -3.83345860E+00
  0.00000000E+00 -3.12280103E+00 -3.83345860E+00  0.00000000E+00 -3.12280103E+00
 -3.83345860E+00  0.00000000E+00 -3.12280103E+00 -3.83345860E+00  0.00000000E+00
 -3.12280103E+00 -3.83345860E+00  0.00000000E+00 -3.12280103E+00 -3.83345860E+00
  0.00000000E+00 -3.12280103E+00 -3.83345860E+00  0.00000000E+00 -3.12280103E+00
 -3.83345860E+00  0.00000000E+00 -3.12280103E+00 -3.83345860E+00  0.00000000E+00
 -4.48740601E+00  9.11216724E-01  0.00000000E+00 -4.48740601E+00  9.11216724E-01
  0.00000000E+00 -4.48740601E+00  9.11216724E-01  0.00000000E+00 -4.48740601E+00
  9.11216724E-01  0.00000000E+00 -4.48740601E+00  9.11216724E-01  0.00000000E+00
 -4.48740601E+00  9.11216724E-01  0.00000000E+00
Constraint Structure                       R   N=          42
  4.90292480E+00  2.39409751E+00  0.00000000E+00  2.84090676E+00  4.03887368E+00
  0.00000000E+00  3.98509377E-01  3.08047654E+00  0.00000000E+00  0.00000000E+00
  4.56572925E-01  0.00000000E+00  2.07307861E+00 -1.18565401E+00  0.00000000E+00
  4.51505269E+00 -2.11179071E-01  0.00000000E+00  1.77305801E+00 -3.20622287E+00
  0.00000000E+00  6.11525570E+00 -1.48857545E+00  0.00000000E+00  6.80939773E+00
  3.14385758E+00  0.00000000E+00  3.13985588E+00  6.06464685E+00  0.00000000E+00
 -1.22055499E+00  4.33082337E+00  0.00000000E+00 -2.66883003E+00 -4.00765432E-01
  0.00000000E+00 -3.12280103E+00 -3.83345860E+00  0.00000000E+00 -4.48740601E+00
  9.11216724E-01  0.00000000E+00
Num ILSW                                   I              100
ILSW                                       I   N=         100
           0           0           0           0           2           0
           0           0           0           0           0          -1
           0           0           0           0           0           0
           0           0           0           0           0           0
           1           0           0           0           0           0
           0           0      100000           0          -1           0
           0           0           0           0           0           0
           0           0           0           1           0           0
           0           0           1           0           0           0
           0           0           4          40           0           0
           0           0           0           0           0           0
           0           0           0           0           0           0
           0           0           0           0           0           0
           0           0           0           0           0           0
           0           0           0           0           0           0
           0           0           0           0           0           0
           0           0           0           0
Num RLSW                                   I               40
RLSW                                       R   N=          40
  1.00000000E+00  1.00000000E+00  1.00000000E+00  1.00000000E+00  1.00000000E+00
  0.00000000E+00  0.00000000E+00  1.00000000E+00  0.00000000E+00  0.00000000E+00
  0.00000000E+00  0.00000000E+00  1.00000000E+00  0.00000000E+00  0.00000000E+00
  0.00000000E+00  0.00000000E+00  1.00000000E+00  0.00000000E+00  0.00000000E+00
  0.00000000E+00  0.00000000E+00  1.00000000E+00  0.00000000E+00  0.00000000E+00
  0.00000000E+00  0.00000000E+00  1.00000000E+00  0.00000000E+00  0.00000000E+00
  0.00000000E+00  0.00000000E+00  0.00000000E+00  0.00000000E+00  0.00000000E+00
  0.00000000E+00  0.00000000E+00  0.00000000E+00  1.00000000E+00  1.00000000E+00
MxBond                                     I                3
NBond                                      I   N=          14
           3           3           3           3           3           3
           1           1           1           1           1           3
           1           1
IBond                                      I   N=          42
           2           6           9           1           3          10
           2           4          11           3           5          12
           4           6           7           1           5           8
           5           0           0           6           0           0
           1           0           0           2           0           0
           3           0           0           4          13          14
          12           0           0          12           0           0
RBond                                      R   N=          42
  1.50000000E+00  1.50000000E+00  1.00000000E+00  1.50000000E+00  1.50000000E+00
  1.00000000E+00  1.50000000E+00  1.50000000E+00  1.00000000E+00  1.50000000E+00
  1.50000000E+00  1.00000000E+00  1.50000000E+00  1.50000000E+00  1.00000000E+00
  1.50000000E+00  1.50000000E+00  1.00000000E+00  1.00000000E+00  0.00000000E+00
  0.00000000E+00  1.00000000E+00  0.00000000E+00  0.00000000E+00  1.00000000E+00
  0.00000000E+00  0.00000000E+00  1.00000000E+00  0.00000000E+00  0.00000000E+00
  1.00000000E+00  0.00000000E+00  0.00000000E+00  1.00000000E+00  1.00000000E+00
  2.00000000E+00  1.00000000E+00  0.00000000E+00  0.00000000E+00  2.00000000E+00
  0.00000000E+00  0.00000000E+00
Virial Ratio                               R      2.000552314424265E+00
SCF Energy                                 R     -8.024486556305565E+02
MP2 Energy                                 R     -8.037404586080221E+02
Total Energy                               R     -8.037404586080221E+02
Post-SCF wavefunction norm                 R      1.207883757194453E+00
RMS Density                                R      5.549268148784366E-09
External E-field                           R   N=          35
  0.00000000E+00  0.00000000E+00  0.00000000E+00  0.00000000E+00  0.00000000E+00
  0.00000000E+00  0.00000000E+00  0.00000000E+00  0.00000000E+00  0.00000000E+00
  0.00000000E+00  0.00000000E+00  0.00000000E+00  0.00000000E+00  0.00000000E+00
  0.00000000E+00  0.00000000E+00  0.00000000E+00  0.00000000E+00  0.00000000E+00
  0.00000000E+00  0.00000000E+00  0.00000000E+00  0.00000000E+00  0.00000000E+00
  0.00000000E+00  0.00000000E+00  0.00000000E+00  0.00000000E+00  0.00000000E+00
  0.00000000E+00  0.00000000E+00  0.00000000E+00  0.00000000E+00  0.00000000E+00
IOpCl                                      I                0
IROHF                                      I                0
Alpha Orbital Energies                     R   N=         241
 -1.04841889E+02 -2.05929955E+01 -1.14182719E+01 -1.12811859E+01 -1.12741091E+01
 -1.12725423E+01 -1.12724737E+01 -1.12621898E+01 -1.12618915E+01 -1.05683493E+01
 -8.03637931E+00 -8.03362516E+00 -8.03357256E+00 -1.45188408E+00 -1.18980396E+00
 -1.12299855E+00 -1.05937955E+00 -1.04701453E+00 -8.98820232E-01 -8.58188358E-01
 -7.88671803E-01 -7.33079469E-01 -6.83957301E-01 -6.79074010E-01 -6.40884137E-01
 -6.28509139E-01 -6.18856263E-01 -6.08859236E-01 -5.46243134E-01 -5.24468030E-01
 -5.24078649E-01 -4.69626324E-01 -4.63713279E-01 -4.50325553E-01 -3.70496571E-01
 -3.64287898E-01  3.19419200E-02  4.39149255E-02  4.50777772E-02  5.13956207E-02
  6.98097761E-02  7.29998787E-02  9.12383859E-02  1.04312321E-01  1.08014720E-01
  1.16680915E-01  1.24844591E-01  1.35388067E-01  1.38549336E-01  1.53327026E-01
  1.53485291E-01  1.57256427E-01  1.63473165E-01  1.68006044E-01  1.76023800E-01
  1.76314197E-01  1.76911945E-01  1.91934450E-01  2.00513338E-01  2.04554081E-01
  2.09041749E-01  2.12063079E-01  2.12914239E-01  2.20103338E-01  2.21938483E-01
  2.28941503E-01  2.30105290E-01  2.43704726E-01  2.67360705E-01  2.72140235E-01
  2.83374051E-01  2.98383357E-01  3.10382506E-01  3.15340450E-01  3.22482042E-01
  3.31046278E-01  3.46421215E-01  3.51607267E-01  3.52626072E-01  3.89497131E-01
  3.90535041E-01  3.98840211E-01  4.01349919E-01  4.13109729E-01  4.18547829E-01
  4.28693610E-01  4.55016162E-01  4.64340452E-01  4.74483088E-01  4.85425472E-01
  5.25055973E-01  5.30137107E-01  5.81536437E-01  6.08773990E-01  6.21499821E-01
  6.34914793E-01  6.63939847E-01  6.95955791E-01  7.00775378E-01  7.06601103E-01
  7.14657252E-01  7.17294314E-01  7.25735444E-01  7.39257959E-01  7.47173100E-01
  7.67450234E-01  8.03742115E-01  8.05040403E-01  8.18076977E-01  8.28849874E-01
  8.72003623E-01  8.73496810E-01  9.21693742E-01  9.23572291E-01  9.27627658E-01
  9.49224714E-01  9.81218610E-01  1.00077589E+00  1.02082527E+00  1.03772545E+00
  1.05010736E+00  1.05247411E+00  1.07684056E+00  1.08017473E+00  1.09247583E+00
  1.10462972E+00  1.11123916E+00  1.14397970E+00  1.15757046E+00  1.16761048E+00
  1.19183525E+00  1.20165991E+00  1.20607899E+00  1.22015546E+00  1.23760918E+00
  1.29544451E+00  1.30775099E+00  1.31418793E+00  1.35545275E+00  1.35683043E+00
  1.36695123E+00  1.39991849E+00  1.40289508E+00  1.44558202E+00  1.51123954E+00
  1.52848913E+00  1.62181412E+00  1.65080112E+00  1.73336345E+00  1.76357173E+00
  1.76382755E+00  1.76707393E+00  1.78092137E+00  1.81008368E+00  1.82140291E+00
  1.85899894E+00  1.89554660E+00  1.89853496E+00  1.93923184E+00  1.96335371E+00
  2.01396514E+00  2.01430185E+00  2.03133518E+00  2.05357730E+00  2.09331823E+00
  2.12648325E+00  2.20611384E+00  2.20636227E+00  2.21125489E+00  2.22063422E+00
  2.22548346E+00  2.25178819E+00  2.28654840E+00  2.32218350E+00  2.32336640E+00
  2.35457001E+00  2.41260803E+00  2.49844796E+00  2.59076440E+00  2.61132866E+00
  2.63989842E+00  2.70195333E+00  2.73564093E+00  2.73837626E+00  2.79726353E+00