 Entering Gaussian System, Link 0=g09
 Initial command:
 /apps/software//g09/l1.exe /scratch/itamar/2438.cluster.abaxnet/Gau-27467.inp -scrdir=/scratch/itamar/2438.cluster.abaxnet/
 Entering Link 1 = /apps/software//g09/l1.exe PID=     27468.
  
 Copyright (c) 1988,1990,1992,1993,1995,1998,2003,2009, Gaussian, Inc.
                  All Rights Reserved.
  
 This is part of the Gaussian(R) 09 program.  It is based on
 the Gaussian(R) 03 system (copyright 2003, Gaussian, Inc.),
 the Gaussian(R) 98 system (copyright 1998, Gaussian, Inc.),
 the Gaussian(R) 94 system (copyright 1995, Gaussian, Inc.),
 the Gaussian 92(TM) system (copyright 1992, Gaussian, Inc.),
 the Gaussian 90(TM) system (copyright 1990, Gaussian, Inc.),
 the Gaussian 88(TM) system (copyright 1988, Gaussian, Inc.),
 the Gaussian 86(TM) system (copyright 1986, Carnegie Mellon
 University), and the Gaussian 82(TM) system (copyright 1983,
 Carnegie Mellon University). Gaussian is a federally registered
 trademark of Gaussian, Inc.
  
 This software contains proprietary and confidential information,
 including trade secrets, belonging to Gaussian, Inc.
  
 This software is provided under written license and may be
 used, copied, transmitted, or stored only in accord with that
 written license.
  
 The following legend is applicable only to US Government
 contracts under FAR:
  
                    RESTRICTED RIGHTS LEGEND
  
 Use, reproduction and disclosure by the US Government is
 subject to restrictions as set forth in subparagraphs (a)
 and (c) of the Commercial Computer Software - Restricted
 Rights clause in FAR 52.227-19.
  
 Gaussian, Inc.
 340 Quinnipiac St., Bldg. 40, Wallingford CT 06492
  
  
 ---------------------------------------------------------------
 Warning -- This program may not be used in any manner that
 competes with the business of Gaussian, Inc. or will provide
 assistance to any competitor of Gaussian, Inc.  The licensee
 of this program is prohibited from giving any competitor of
 Gaussian, Inc. access to this program.  By using this program,
 the user acknowledges that Gaussian, Inc. is engaged in the
 business of creating and licensing software in the field of
 computational chemistry and represents and warrants to the
 licensee that it is not a competitor of Gaussian, Inc. and that
 it will not use this program in any manner prohibited above.
 ---------------------------------------------------------------
  

 Cite this work as:
 Gaussian 09, Revision A.02,
 M. J. Frisch, G. W. Trucks, H. B. Schlegel, G. E. Scuseria, 
 M. A. Robb, J. R. Cheeseman, G. Scalmani, V. Barone, B. Mennucci, 
 G. A. Petersson, H. Nakatsuji, M. Caricato, X. Li, H. P. Hratchian, 
 A. F. Izmaylov, J. Bloino, G. Zheng, J. L. Sonnenberg, M. Hada, 
 M. Ehara, K. Toyota, R. Fukuda, J. Hasegawa, M. Ishida, T. Nakajima, 
 Y. Honda, O. Kitao, H. Nakai, T. Vreven, J. A. Montgomery, Jr., 
 J. E. Peralta, F. Ogliaro, M. Bearpark, J. J. Heyd, E. Brothers, 
 K. N. Kudin, V. N. Staroverov, R. Kobayashi, J. Normand, 
 K. Raghavachari, A. Rendell, J. C. Burant, S. S. Iyengar, J. Tomasi, 
 M. Cossi, N. Rega, J. M. Millam, M. Klene, J. E. Knox, J. B. Cross, 
 V. Bakken, C. Adamo, J. Jaramillo, R. Gomperts, R. E. Stratmann, 
 O. Yazyev, A. J. Austin, R. Cammi, C. Pomelli, J. W. Ochterski, 
 R. L. Martin, K. Morokuma, V. G. Zakrzewski, G. A. Voth, 
 P. Salvador, J. J. Dannenberg, S. Dapprich, A. D. Daniels, 
 O. Farkas, J. B. Foresman, J. V. Ortiz, J. Cioslowski, 
 and D. J. Fox, Gaussian, Inc., Wallingford CT, 2009.
 
 ******************************************
 Gaussian 09:  EM64L-G09RevA.02 11-Jun-2009
                 3-Dec-2021 
 ******************************************
 %Mem=3800MB
 %NProcShared=6
 Will use up to    6 processors via shared memory.
 %chk=/home/itamar/Aromaticity-test-set/T6-Subst-Complex-in-Benzene/CCH/cch.chk
 -----------------------------
 #P MP2/6-311++G** DENSITY=MP2
 -----------------------------
 1/30=1,38=1/1;
 2/12=2,17=6,18=5,40=1/2;
 3/5=4,6=6,7=1111,11=9,16=1,25=1,30=1,71=1/1,2,3;
 4//1;
 5/5=2,38=5/2;
 8/6=4,10=2/1;
 9/15=1,16=-3/6;
 10/5=1,13=10/2;
 6/7=2,8=2,9=2,10=2,22=2/1;
 99/5=1,9=1/99;
 Leave Link    1 at Fri Dec  3 12:47:09 2021, MaxMem=  498073600 cpu:       0.2
 (Enter /apps/software//g09/l101.exe)
 -----
 X=CCH
 -----
 Symbolic Z-matrix:
 Charge =  0 Multiplicity = 1
 6                     0.00061  -2.20966   0. 
 6                    -1.20611  -1.51026   0. 
 6                    -1.21077  -0.11956   0. 
 6                     0.        0.59381   0. 
 6                     1.21101  -0.11897   0. 
 6                     1.20697  -1.5097    0. 
 6                    -0.00049   2.02199   0. 
 1                     2.14643   0.42739   0. 
 1                     2.14773  -2.04848   0. 
 1                     0.00086  -3.29369   0. 
 1                    -2.14662  -2.04949   0. 
 1                    -2.14638   0.42645   0. 
 6                    -0.00159   3.22705   0. 
 1                     0.00014   4.28955   0. 
 
 NAtoms=     14 NQM=     14 NQMF=      0 NMic=      0 NMicF=      0 NTot=     14.
                    Isotopes and Nuclear Properties:
 (Nuclear quadrupole moments (NQMom) in fm**2, nuclear magnetic moments (NMagM)
  in nuclear magnetons)

  Atom         1           2           3           4           5           6           7           8           9          10
 IAtWgt=          12          12          12          12          12          12          12           1           1           1
 AtmWgt=  12.0000000  12.0000000  12.0000000  12.0000000  12.0000000  12.0000000  12.0000000   1.0078250   1.0078250   1.0078250
 NucSpn=           0           0           0           0           0           0           0           1           1           1
 AtZEff=   0.0000000   0.0000000   0.0000000   0.0000000   0.0000000   0.0000000   0.0000000   0.0000000   0.0000000   0.0000000
 NQMom=    0.0000000   0.0000000   0.0000000   0.0000000   0.0000000   0.0000000   0.0000000   0.0000000   0.0000000   0.0000000
 NMagM=    0.0000000   0.0000000   0.0000000   0.0000000   0.0000000   0.0000000   0.0000000   2.7928460   2.7928460   2.7928460

  Atom        11          12          13          14
 IAtWgt=           1           1          12           1
 AtmWgt=   1.0078250   1.0078250  12.0000000   1.0078250
 NucSpn=           1           1           0           1
 AtZEff=   0.0000000   0.0000000   0.0000000   0.0000000
 NQMom=    0.0000000   0.0000000   0.0000000   0.0000000
 NMagM=    2.7928460   2.7928460   0.0000000   2.7928460
 Leave Link  101 at Fri Dec  3 12:47:09 2021, MaxMem=  498073600 cpu:       0.2
 (Enter /apps/software//g09/l202.exe)
                          Input orientation:                          
 ---------------------------------------------------------------------
 Center     Atomic      Atomic             Coordinates (Angstroms)
 Number     Number       Type             X           Y           Z
 ---------------------------------------------------------------------
      1          6           0        0.000609   -2.209655    0.000000
      2          6           0       -1.206111   -1.510255    0.000000
      3          6           0       -1.210765   -0.119555    0.000000
      4          6           0        0.000000    0.593807    0.000000
      5          6           0        1.211014   -0.118967    0.000000
      6          6           0        1.206971   -1.509699    0.000000
      7          6           0       -0.000485    2.021987    0.000000
      8          1           0        2.146431    0.427389    0.000000
      9          1           0        2.147733   -2.048484    0.000000
     10          1           0        0.000861   -3.293691    0.000000
     11          1           0       -2.146617   -2.049491    0.000000
     12          1           0       -2.146381    0.426446    0.000000
     13          6           0       -0.001594    3.227049    0.000000
     14          1           0        0.000141    4.289554    0.000000
 ---------------------------------------------------------------------
                    Distance matrix (angstroms):
                    1          2          3          4          5
     1  C    0.000000
     2  C    1.394752   0.000000
     3  C    2.415770   1.390708   0.000000
     4  C    2.803462   2.425238   1.405289   0.000000
     5  C    2.415793   2.788938   2.421779   1.405205   0.000000
     6  C    1.394721   2.413082   2.788897   2.425184   1.390738
     7  C    4.231642   3.732327   2.459874   1.428180   2.459962
     8  H    3.399787   3.872209   3.401457   2.152873   1.083287
     9  H    2.153165   3.396757   3.873019   3.405064   2.144873
    10  H    1.084036   2.153468   3.397525   3.887498   3.397550
    11  H    2.153191   1.084125   2.144871   3.405142   3.873062
    12  H    3.399793   2.152886   1.083279   2.152896   3.401408
    13  C    5.436704   4.888037   3.558350   2.633242   3.558966
    14  H    6.499209   5.923920   4.572367   3.695747   4.571791
                    6          7          8          9         10
     6  C    0.000000
     7  C    3.732393   0.000000
     8  H    2.152881   2.674321   0.000000
     9  H    1.084123   4.602562   2.475873   0.000000
    10  H    2.153446   5.315678   4.295335   2.481854   0.000000
    11  H    3.396753   4.602479   4.956329   4.294350   2.481873
    12  H    3.872161   2.674064   4.292812   4.956278   4.295354
    13  C    4.888498   1.205063   3.528754   5.696565   6.520740
    14  H    5.923493   2.267567   4.418470   6.692001   7.583245
                   11         12         13         14
    11  H    0.000000
    12  H    2.475937   0.000000
    13  C    5.695876   3.527533   0.000000
    14  H    6.692687   4.419407   1.062506   0.000000
 Stoichiometry    C8H6
 Framework group  CS[SG(C8H6)]
 Deg. of freedom    25
 Full point group                 CS      NOp   2
 Largest Abelian subgroup         CS      NOp   2
 Largest concise Abelian subgroup C1      NOp   1
                         Standard orientation:                         
 ---------------------------------------------------------------------
 Center     Atomic      Atomic             Coordinates (Angstroms)
 Number     Number       Type             X           Y           Z
 ---------------------------------------------------------------------
      1          6           0        0.000609   -2.209655    0.000000
      2          6           0       -1.206111   -1.510255    0.000000
      3          6           0       -1.210765   -0.119555    0.000000
      4          6           0        0.000000    0.593807    0.000000
      5          6           0        1.211014   -0.118967    0.000000
      6          6           0        1.206971   -1.509699    0.000000
      7          6           0       -0.000485    2.021987    0.000000
      8          1           0        2.146431    0.427389    0.000000
      9          1           0        2.147733   -2.048484    0.000000
     10          1           0        0.000861   -3.293691    0.000000
     11          1           0       -2.146617   -2.049491    0.000000
     12          1           0       -2.146381    0.426446    0.000000
     13          6           0       -0.001594    3.227049    0.000000
     14          1           0        0.000141    4.289554    0.000000
 ---------------------------------------------------------------------
 Rotational constants (GHZ):      5.6971734      1.5306621      1.2065089
 Leave Link  202 at Fri Dec  3 12:47:09 2021, MaxMem=  498073600 cpu:       0.1
 (Enter /apps/software//g09/l301.exe)
 Standard basis: 6-311++G(d,p) (5D, 7F)
 Ernie: Thresh=  0.10000D-02 Tol=  0.10000D-05 Strict=F.
 There are   164 symmetry adapted basis functions of A'  symmetry.
 There are    54 symmetry adapted basis functions of A"  symmetry.
 Integral buffers will be    131072 words long.
 Raffenetti 1 integral format.
 Two-electron integral symmetry is turned on.
   218 basis functions,   342 primitive gaussians,   226 cartesian basis functions
    27 alpha electrons       27 beta electrons
       nuclear repulsion energy       298.9306812751 Hartrees.
 IExCor=    0 DFT=F Ex=HF Corr=None ExCW=0 ScaHFX=  1.000000
 ScaDFX=  1.000000  1.000000  1.000000  1.000000 ScalE2=  1.000000  1.000000
 IRadAn=      0 IRanWt=     -1 IRanGd=            0 ICorTp=0
 NAtoms=   14 NActive=   14 NUniq=   14 SFac= 7.50D-01 NAtFMM=   80 NAOKFM=F Big=F
 Leave Link  301 at Fri Dec  3 12:47:09 2021, MaxMem=  498073600 cpu:       0.2
 (Enter /apps/software//g09/l302.exe)
 NPDir=0 NMtPBC=     1 NCelOv=     1 NCel=       1 NClECP=     1 NCelD=      1
         NCelK=      1 NCelE2=     1 NClLst=     1 CellRange=     0.0.
 One-electron integrals computed using PRISM.
 NBasis=   218 RedAO= T  NBF=   164    54
 NBsUse=   217 1.00D-06 NBFU=   163    54
 Leave Link  302 at Fri Dec  3 12:47:10 2021, MaxMem=  498073600 cpu:       1.4
 (Enter /apps/software//g09/l303.exe)
 DipDrv:  MaxL=1.
 Leave Link  303 at Fri Dec  3 12:47:10 2021, MaxMem=  498073600 cpu:       0.2
 (Enter /apps/software//g09/l401.exe)
 Harris functional with IExCor=  205 diagonalized for initial guess.
 ExpMin= 3.60D-02 ExpMax= 4.56D+03 ExpMxC= 6.82D+02 IAcc=3 IRadAn=         0 AccDes= 0.00D+00
 HarFok:  IExCor=  205 AccDes= 0.00D+00 IRadAn=         0 IDoV= 1
 ScaDFX=  1.000000  1.000000  1.000000  1.000000
 FoFCou: FMM=F IPFlag=           0 FMFlag=      100000 FMFlg1=           0
         NFxFlg=           0 DoJE=T BraDBF=F KetDBF=T FulRan=T
         Omega=  0.000000  0.000000  1.000000  0.000000  0.000000 ICntrl=     500 IOpCl=  0
         NMat0=    1 NMatS0=    1 NMatT0=    0 NMatD0=    1 NMtDS0=    0 NMtDT0=    0
         I1Cent=           4 NGrid=           0.
 Petite list used in FoFCou.
 Harris En= -306.909681986294    
 Initial guess orbital symmetries:
       Occupied  (A') (A') (A') (A') (A') (A') (A') (A') (A') (A')
                 (A') (A') (A') (A') (A') (A') (A') (A') (A') (A')
                 (A") (A') (A') (A") (A') (A") (A")
       Virtual   (A") (A") (A') (A") (A') (A') (A') (A") (A') (A')
                 (A') (A') (A") (A') (A") (A') (A') (A") (A') (A')
                 (A') (A') (A") (A') (A') (A') (A') (A") (A') (A')
                 (A') (A") (A') (A") (A') (A') (A') (A") (A') (A')
                 (A') (A') (A') (A') (A') (A') (A') (A') (A') (A')
                 (A') (A') (A') (A') (A') (A') (A") (A') (A") (A')
                 (A') (A') (A") (A') (A") (A') (A") (A") (A') (A')
                 (A") (A") (A') (A') (A') (A') (A') (A') (A') (A')
                 (A') (A') (A') (A') (A') (A') (A') (A") (A") (A')
                 (A') (A') (A") (A") (A') (A') (A") (A") (A") (A')
                 (A') (A') (A") (A') (A') (A') (A') (A') (A") (A")
                 (A') (A") (A") (A') (A') (A') (A') (A") (A') (A")
                 (A") (A') (A') (A') (A") (A") (A') (A') (A') (A')
                 (A') (A") (A') (A") (A') (A') (A") (A") (A') (A')
                 (A') (A') (A") (A') (A") (A') (A') (A") (A') (A')
                 (A") (A') (A') (A') (A") (A') (A') (A') (A") (A')
                 (A") (A') (A") (A') (A") (A') (A') (A') (A') (A')
                 (A') (A') (A') (A') (A') (A') (A') (A') (A') (A')
                 (A') (A') (A') (A') (A') (A') (A') (A') (A') (A')
 The electronic state of the initial guess is 1-A'.
 Leave Link  401 at Fri Dec  3 12:47:11 2021, MaxMem=  498073600 cpu:       4.0
 (Enter /apps/software//g09/l502.exe)
 Closed shell SCF:
 Requested convergence on RMS density matrix=1.00D-08 within 128 cycles.
 Requested convergence on MAX density matrix=1.00D-06.
 Requested convergence on             energy=1.00D-06.
 No special actions if energy rises.
 Using DIIS extrapolation, IDIIS=  1040.
 Integral symmetry usage will be decided dynamically.
 Keep R1 ints in memory in canonical form, NReq=335022656.
 IEnd=      174488 IEndB=      174488 NGot=   498073600 MDV=   168967301
 LenX=   168967301 LenY=   168915784
 Symmetry not used in FoFDir.
 MinBra= 0 MaxBra= 2 Meth= 1.
 IRaf=       0 NMat=   1 IRICut=       1 DoRegI=T DoRafI=F ISym2E= 0 JSym2E=0.

 Cycle   1  Pass 1  IDiag  1:
 E= -306.077937007586    
 DIIS: error= 7.12D-02 at cycle   1 NSaved=   1.
 NSaved= 1 IEnMin= 1 EnMin= -306.077937007586     IErMin= 1 ErrMin= 7.12D-02
 ErrMax= 7.12D-02 EMaxC= 1.00D-01 BMatC= 6.58D-01 BMatP= 6.58D-01
 IDIUse=3 WtCom= 2.88D-01 WtEn= 7.12D-01
 Coeff-Com:  0.100D+01
 Coeff-En:   0.100D+01
 Coeff:      0.100D+01
 Gap=     0.418 Goal=   None    Shift=    0.000
 GapD=    0.418 DampG=2.000 DampE=0.500 DampFc=1.0000 IDamp=-1.
 RMSDP=3.85D-02 MaxDP=4.24D+00              OVMax= 1.49D-01

 Cycle   2  Pass 1  IDiag  1:
 E= -306.405934303950     Delta-E=       -0.327997296363 Rises=F Damp=F
 DIIS: error= 1.97D-02 at cycle   2 NSaved=   2.
 NSaved= 2 IEnMin= 2 EnMin= -306.405934303950     IErMin= 2 ErrMin= 1.97D-02
 ErrMax= 1.97D-02 EMaxC= 1.00D-01 BMatC= 4.33D-02 BMatP= 6.58D-01
 IDIUse=3 WtCom= 8.03D-01 WtEn= 1.97D-01
 Coeff-Com:  0.118D+00 0.882D+00
 Coeff-En:   0.000D+00 0.100D+01
 Coeff:      0.949D-01 0.905D+00
 Gap=     0.388 Goal=   None    Shift=    0.000
 RMSDP=1.43D-02 MaxDP=8.91D-01 DE=-3.28D-01 OVMax= 5.00D-02

 Cycle   3  Pass 1  IDiag  1:
 E= -306.442793884518     Delta-E=       -0.036859580569 Rises=F Damp=F
 DIIS: error= 6.56D-03 at cycle   3 NSaved=   3.
 NSaved= 3 IEnMin= 3 EnMin= -306.442793884518     IErMin= 3 ErrMin= 6.56D-03
 ErrMax= 6.56D-03 EMaxC= 1.00D-01 BMatC= 4.35D-03 BMatP= 4.33D-02
 IDIUse=3 WtCom= 9.34D-01 WtEn= 6.56D-02
 Coeff-Com: -0.164D-01 0.206D+00 0.810D+00
 Coeff-En:   0.000D+00 0.000D+00 0.100D+01
 Coeff:     -0.153D-01 0.192D+00 0.823D+00
 Gap=     0.360 Goal=   None    Shift=    0.000
 RMSDP=6.68D-03 MaxDP=8.82D-01 DE=-3.69D-02 OVMax= 1.62D-02

 Cycle   4  Pass 1  IDiag  1:
 E= -306.446994568760     Delta-E=       -0.004200684241 Rises=F Damp=F
 DIIS: error= 1.06D-03 at cycle   4 NSaved=   4.
 NSaved= 4 IEnMin= 4 EnMin= -306.446994568760     IErMin= 4 ErrMin= 1.06D-03
 ErrMax= 1.06D-03 EMaxC= 1.00D-01 BMatC= 1.21D-04 BMatP= 4.35D-03
 IDIUse=3 WtCom= 9.89D-01 WtEn= 1.06D-02
 Coeff-Com: -0.535D-02 0.197D-01 0.163D+00 0.823D+00
 Coeff-En:   0.000D+00 0.000D+00 0.000D+00 0.100D+01
 Coeff:     -0.529D-02 0.195D-01 0.161D+00 0.825D+00
 Gap=     0.359 Goal=   None    Shift=    0.000
 RMSDP=4.06D-04 MaxDP=4.41D-02 DE=-4.20D-03 OVMax= 4.03D-03

 Cycle   5  Pass 1  IDiag  1:
 E= -306.447135499154     Delta-E=       -0.000140930395 Rises=F Damp=F
 DIIS: error= 3.11D-04 at cycle   5 NSaved=   5.
 NSaved= 5 IEnMin= 5 EnMin= -306.447135499154     IErMin= 5 ErrMin= 3.11D-04
 ErrMax= 3.11D-04 EMaxC= 1.00D-01 BMatC= 9.03D-06 BMatP= 1.21D-04
 IDIUse=3 WtCom= 9.97D-01 WtEn= 3.11D-03
 Coeff-Com:  0.886D-03-0.151D-01-0.557D-01 0.639D-01 0.101D+01
 Coeff-En:   0.000D+00 0.000D+00 0.000D+00 0.000D+00 0.100D+01
 Coeff:      0.883D-03-0.150D-01-0.556D-01 0.637D-01 0.101D+01
 Gap=     0.359 Goal=   None    Shift=    0.000
 RMSDP=3.11D-04 MaxDP=3.79D-02 DE=-1.41D-04 OVMax= 1.51D-03

 Cycle   6  Pass 1  IDiag  1:
 E= -306.447150289859     Delta-E=       -0.000014790705 Rises=F Damp=F
 DIIS: error= 7.10D-05 at cycle   6 NSaved=   6.
 NSaved= 6 IEnMin= 6 EnMin= -306.447150289859     IErMin= 6 ErrMin= 7.10D-05
 ErrMax= 7.10D-05 EMaxC= 1.00D-01 BMatC= 7.25D-07 BMatP= 9.03D-06
 IDIUse=1 WtCom= 1.00D+00 WtEn= 0.00D+00
 Coeff-Com:  0.518D-03-0.455D-02-0.219D-01-0.457D-01 0.187D+00 0.884D+00
 Coeff:      0.518D-03-0.455D-02-0.219D-01-0.457D-01 0.187D+00 0.884D+00
 Gap=     0.359 Goal=   None    Shift=    0.000
 RMSDP=6.45D-05 MaxDP=7.88D-03 DE=-1.48D-05 OVMax= 4.75D-04

 Cycle   7  Pass 1  IDiag  1:
 E= -306.447151520236     Delta-E=       -0.000001230377 Rises=F Damp=F
 DIIS: error= 5.40D-05 at cycle   7 NSaved=   7.
 NSaved= 7 IEnMin= 7 EnMin= -306.447151520236     IErMin= 7 ErrMin= 5.40D-05
 ErrMax= 5.40D-05 EMaxC= 1.00D-01 BMatC= 9.92D-08 BMatP= 7.25D-07
 IDIUse=1 WtCom= 1.00D+00 WtEn= 0.00D+00
 Coeff-Com:  0.795D-04-0.226D-03-0.185D-02-0.171D-01-0.219D-01 0.233D+00
 Coeff-Com:  0.808D+00
 Coeff:      0.795D-04-0.226D-03-0.185D-02-0.171D-01-0.219D-01 0.233D+00
 Coeff:      0.808D+00
 Gap=     0.359 Goal=   None    Shift=    0.000
 RMSDP=1.48D-05 MaxDP=5.05D-04 DE=-1.23D-06 OVMax= 1.91D-04

 Cycle   8  Pass 1  IDiag  1:
 E= -306.447151738285     Delta-E=       -0.000000218049 Rises=F Damp=F
 DIIS: error= 2.60D-05 at cycle   8 NSaved=   8.
 NSaved= 8 IEnMin= 8 EnMin= -306.447151738285     IErMin= 8 ErrMin= 2.60D-05
 ErrMax= 2.60D-05 EMaxC= 1.00D-01 BMatC= 2.01D-08 BMatP= 9.92D-08
 IDIUse=1 WtCom= 1.00D+00 WtEn= 0.00D+00
 Coeff-Com: -0.676D-04 0.633D-03 0.295D-02 0.618D-02-0.224D-01-0.125D+00
 Coeff-Com: -0.516D-01 0.119D+01
 Coeff:     -0.676D-04 0.633D-03 0.295D-02 0.618D-02-0.224D-01-0.125D+00
 Coeff:     -0.516D-01 0.119D+01
 Gap=     0.359 Goal=   None    Shift=    0.000
 RMSDP=7.15D-06 MaxDP=3.76D-04 DE=-2.18D-07 OVMax= 1.87D-04

 Cycle   9  Pass 1  IDiag  1:
 E= -306.447151844979     Delta-E=       -0.000000106694 Rises=F Damp=F
 DIIS: error= 1.63D-05 at cycle   9 NSaved=   9.
 NSaved= 9 IEnMin= 9 EnMin= -306.447151844979     IErMin= 9 ErrMin= 1.63D-05
 ErrMax= 1.63D-05 EMaxC= 1.00D-01 BMatC= 8.69D-09 BMatP= 2.01D-08
 IDIUse=1 WtCom= 1.00D+00 WtEn= 0.00D+00
 Coeff-Com: -0.414D-04 0.229D-03 0.129D-02 0.637D-02 0.187D-02-0.101D+00
 Coeff-Com: -0.278D+00 0.318D+00 0.105D+01
 Coeff:     -0.414D-04 0.229D-03 0.129D-02 0.637D-02 0.187D-02-0.101D+00
 Coeff:     -0.278D+00 0.318D+00 0.105D+01
 Gap=     0.359 Goal=   None    Shift=    0.000
 RMSDP=4.18D-06 MaxDP=2.06D-04 DE=-1.07D-07 OVMax= 1.25D-04

 Cycle  10  Pass 1  IDiag  1:
 E= -306.447151890938     Delta-E=       -0.000000045959 Rises=F Damp=F
 DIIS: error= 6.96D-06 at cycle  10 NSaved=  10.
 NSaved=10 IEnMin=10 EnMin= -306.447151890938     IErMin=10 ErrMin= 6.96D-06
 ErrMax= 6.96D-06 EMaxC= 1.00D-01 BMatC= 1.78D-09 BMatP= 8.69D-09
 IDIUse=1 WtCom= 1.00D+00 WtEn= 0.00D+00
 Coeff-Com:  0.278D-04-0.265D-03-0.127D-02-0.331D-02 0.105D-01 0.580D-01
 Coeff-Com:  0.308D-01-0.494D+00-0.531D-01 0.145D+01
 Coeff:      0.278D-04-0.265D-03-0.127D-02-0.331D-02 0.105D-01 0.580D-01
 Coeff:      0.308D-01-0.494D+00-0.531D-01 0.145D+01
 Gap=     0.359 Goal=   None    Shift=    0.000
 RMSDP=4.26D-06 MaxDP=2.49D-04 DE=-4.60D-08 OVMax= 1.07D-04

 Cycle  11  Pass 1  IDiag  1:
 E= -306.447151904226     Delta-E=       -0.000000013288 Rises=F Damp=F
 DIIS: error= 1.57D-06 at cycle  11 NSaved=  11.
 NSaved=11 IEnMin=11 EnMin= -306.447151904226     IErMin=11 ErrMin= 1.57D-06
 ErrMax= 1.57D-06 EMaxC= 1.00D-01 BMatC= 6.97D-11 BMatP= 1.78D-09
 IDIUse=1 WtCom= 1.00D+00 WtEn= 0.00D+00
 Coeff-Com: -0.180D-06 0.160D-04 0.905D-04-0.536D-04-0.164D-02-0.886D-03
 Coeff-Com:  0.186D-01 0.557D-01-0.706D-01-0.247D+00 0.125D+01
 Coeff:     -0.180D-06 0.160D-04 0.905D-04-0.536D-04-0.164D-02-0.886D-03
 Coeff:      0.186D-01 0.557D-01-0.706D-01-0.247D+00 0.125D+01
 Gap=     0.359 Goal=   None    Shift=    0.000
 RMSDP=1.87D-06 MaxDP=8.76D-05 DE=-1.33D-08 OVMax= 1.65D-05

 Cycle  12  Pass 1  IDiag  1:
 E= -306.447151904592     Delta-E=       -0.000000000366 Rises=F Damp=F
 DIIS: error= 2.78D-07 at cycle  12 NSaved=  12.
 NSaved=12 IEnMin=12 EnMin= -306.447151904592     IErMin=12 ErrMin= 2.78D-07
 ErrMax= 2.78D-07 EMaxC= 1.00D-01 BMatC= 7.23D-12 BMatP= 6.97D-11
 IDIUse=1 WtCom= 1.00D+00 WtEn= 0.00D+00
 Coeff-Com: -0.195D-05 0.225D-04 0.111D-03 0.223D-03-0.114D-02-0.450D-02
 Coeff-Com:  0.212D-02 0.478D-01-0.129D-01-0.170D+00 0.275D+00 0.863D+00
 Coeff:     -0.195D-05 0.225D-04 0.111D-03 0.223D-03-0.114D-02-0.450D-02
 Coeff:      0.212D-02 0.478D-01-0.129D-01-0.170D+00 0.275D+00 0.863D+00
 Gap=     0.359 Goal=   None    Shift=    0.000
 RMSDP=2.44D-07 MaxDP=1.55D-05 DE=-3.66D-10 OVMax= 3.30D-06

 Cycle  13  Pass 1  IDiag  1:
 E= -306.447151904606     Delta-E=       -0.000000000014 Rises=F Damp=F
 DIIS: error= 8.29D-08 at cycle  13 NSaved=  13.
 NSaved=13 IEnMin=13 EnMin= -306.447151904606     IErMin=13 ErrMin= 8.29D-08
 ErrMax= 8.29D-08 EMaxC= 1.00D-01 BMatC= 3.39D-13 BMatP= 7.23D-12
 IDIUse=1 WtCom= 1.00D+00 WtEn= 0.00D+00
 Coeff-Com:  0.281D-06-0.426D-05-0.232D-04-0.315D-04 0.299D-03 0.719D-03
 Coeff-Com: -0.159D-02-0.116D-01 0.799D-02 0.429D-01-0.140D+00-0.862D-01
 Coeff-Com:  0.119D+01
 Coeff:      0.281D-06-0.426D-05-0.232D-04-0.315D-04 0.299D-03 0.719D-03
 Coeff:     -0.159D-02-0.116D-01 0.799D-02 0.429D-01-0.140D+00-0.862D-01
 Coeff:      0.119D+01
 Gap=     0.359 Goal=   None    Shift=    0.000
 RMSDP=8.24D-08 MaxDP=3.69D-06 DE=-1.38D-11 OVMax= 6.13D-07

 Cycle  14  Pass 1  IDiag  1:
 E= -306.447151904611     Delta-E=       -0.000000000005 Rises=F Damp=F
 DIIS: error= 2.16D-08 at cycle  14 NSaved=  14.
 NSaved=14 IEnMin=14 EnMin= -306.447151904611     IErMin=14 ErrMin= 2.16D-08
 ErrMax= 2.16D-08 EMaxC= 1.00D-01 BMatC= 3.42D-14 BMatP= 3.39D-13
 IDIUse=1 WtCom= 1.00D+00 WtEn= 0.00D+00
 Coeff-Com:  0.867D-07-0.104D-05-0.503D-05-0.107D-04 0.540D-04 0.202D-03
 Coeff-Com: -0.114D-03-0.217D-02 0.846D-03 0.806D-02-0.166D-01-0.191D-01
 Coeff-Com: -0.958D-02 0.104D+01
 Coeff:      0.867D-07-0.104D-05-0.503D-05-0.107D-04 0.540D-04 0.202D-03
 Coeff:     -0.114D-03-0.217D-02 0.846D-03 0.806D-02-0.166D-01-0.191D-01
 Coeff:     -0.958D-02 0.104D+01
 Gap=     0.359 Goal=   None    Shift=    0.000
 RMSDP=1.48D-08 MaxDP=8.83D-07 DE=-5.00D-12 OVMax= 1.54D-07

 Cycle  15  Pass 1  IDiag  1:
 E= -306.447151904609     Delta-E=        0.000000000002 Rises=F Damp=F
 DIIS: error= 1.60D-08 at cycle  15 NSaved=  15.
 NSaved=15 IEnMin=14 EnMin= -306.447151904611     IErMin=15 ErrMin= 1.60D-08
 ErrMax= 1.60D-08 EMaxC= 1.00D-01 BMatC= 8.24D-15 BMatP= 3.42D-14
 IDIUse=1 WtCom= 1.00D+00 WtEn= 0.00D+00
 Coeff-Com: -0.553D-07 0.819D-06 0.442D-05 0.654D-05-0.573D-04-0.142D-03
 Coeff-Com:  0.287D-03 0.213D-02-0.157D-02-0.825D-02 0.240D-01 0.260D-01
 Coeff-Com: -0.215D+00-0.246D+00 0.142D+01
 Coeff:     -0.553D-07 0.819D-06 0.442D-05 0.654D-05-0.573D-04-0.142D-03
 Coeff:      0.287D-03 0.213D-02-0.157D-02-0.825D-02 0.240D-01 0.260D-01
 Coeff:     -0.215D+00-0.246D+00 0.142D+01
 Gap=     0.359 Goal=   None    Shift=    0.000
 RMSDP=8.80D-09 MaxDP=4.40D-07 DE= 2.27D-12 OVMax= 1.44D-07

 SCF Done:  E(RHF) =  -306.447151905     A.U. after   15 cycles
             Convg  =    0.8798D-08             -V/T =  2.0013
 KE= 3.060620414793D+02 PE=-1.310855025209D+03 EE= 3.994151505503D+02
 Leave Link  502 at Fri Dec  3 12:47:36 2021, MaxMem=  498073600 cpu:     152.4
 (Enter /apps/software//g09/l801.exe)
 ExpMin= 3.60D-02 ExpMax= 4.56D+03 ExpMxC= 6.82D+02 IAcc=3 IRadAn=         5 AccDes= 0.00D+00
 HarFok:  IExCor=  205 AccDes= 0.00D+00 IRadAn=         5 IDoV=-2
 ScaDFX=  1.000000  1.000000  1.000000  1.000000
 Largest valence mixing into a core orbital is  1.42D-04
 Largest core mixing into a valence orbital is  4.40D-05
 Range of M.O.s used for correlation:     9   217
 NBasis=   218 NAE=    27 NBE=    27 NFC=     8 NFV=     0
 NROrb=    209 NOA=    19 NOB=    19 NVA=   190 NVB=   190

 **** Warning!!: The largest alpha MO coefficient is  0.16292937D+03

 Leave Link  801 at Fri Dec  3 12:47:37 2021, MaxMem=  498073600 cpu:       1.4
 (Enter /apps/software//g09/l906.exe)
 Frozen-core derivative calculation, NFC=   8 NFV=   0.
 FulOut=F Deriv=T AODrv=F NAtomX=    14
   MMem=          87  MDisk=          19 MDiskD=          19
  W3Min=     1324134 MinDsk=     1869413 NBas6D=         226
 NBas2D=       25981    NTT=       25651    LW2=     2040000
    MDV=   497488125 MDiskM=       30450 NBas2p=       24836
 Fully direct method using O(ONN) memory.
 IMap=   1   2   3   4   5   6   7   8   9  10  11  12  13  14  15  16  17  18  19  20
 IMap=  21  22  23  24  25  26  27
 JobTyp=1 Pass  1:  I=   9 to  21 NPSUse=  6 ParTrn=T ParDer=T DoDerP=T.
 JobTyp=1 Pass  2:  I=  22 to  27 NPSUse=  6 ParTrn=T ParDer=T DoDerP=T.
 Spin components of T(2) and E(2):
     alpha-alpha T2 =       0.5738408100D-01 E2=     -0.1434028105D+00
     alpha-beta  T2 =       0.2988080730D+00 E2=     -0.7978685422D+00
     beta-beta   T2 =       0.5738408100D-01 E2=     -0.1434028105D+00
 The integrals were generated   2 times.
 ANorm=    0.1188939122D+01
 E2 =    -0.1084674163D+01 EUMP2 =    -0.30753182606775D+03
 Leave Link  906 at Fri Dec  3 12:48:15 2021, MaxMem=  498073600 cpu:     229.0
 (Enter /apps/software//g09/l1002.exe)
 Minotr:  Closed shell wavefunction.
          Computing MP2/KS-MP2 derivatives.
          Using Z-Vector for PSCF gradient.
          Skipping F1 and S1 gradient terms here.
          Frozen-core window.
          Direct CPHF calculation.
          Differentiating once with respect to electric field.
                with respect to dipole field.
          Electric field/nuclear overlap derivatives assumed to be zero.
          Using symmetry in CPHF.
          Requested convergence is 1.0D-10 RMS, and 1.0D-09 maximum.
          NewPWx=F KeepS1=T KeepF1=T KeepIn=T MapXYZ=F SortEE=F KeepMc=T.
          MDV=     498073484 using IRadAn=       0.
          Keep R1 ints in memory in canonical form, NReq=329821394.
 Symmetry not used in FoFDir.
 MinBra= 0 MaxBra= 2 Meth= 1.
 IRaf=       0 NMat=   1 IRICut=       1 DoRegI=T DoRafI=F ISym2E= 0 JSym2E=0.
          Solving linear equations separately, MaxMat=       0.
          There are     1 degrees of freedom in the 1st order CPHF.  IDoFFX=0.
 LinEq1:  Iter=  0 NonCon=     1 RMS=3.37D-03 Max=7.12D-02
 AX will form     1 AO Fock derivatives at one time.
 LinEq1:  Iter=  1 NonCon=     1 RMS=8.16D-04 Max=1.03D-02
 LinEq1:  Iter=  2 NonCon=     1 RMS=2.89D-04 Max=6.47D-03
 LinEq1:  Iter=  3 NonCon=     1 RMS=1.49D-04 Max=4.04D-03
 LinEq1:  Iter=  4 NonCon=     1 RMS=6.89D-05 Max=1.95D-03
 LinEq1:  Iter=  5 NonCon=     1 RMS=2.59D-05 Max=6.30D-04
 LinEq1:  Iter=  6 NonCon=     1 RMS=8.35D-06 Max=1.40D-04
 LinEq1:  Iter=  7 NonCon=     1 RMS=2.38D-06 Max=4.91D-05
 LinEq1:  Iter=  8 NonCon=     1 RMS=8.87D-07 Max=2.30D-05
 LinEq1:  Iter=  9 NonCon=     1 RMS=3.99D-07 Max=1.01D-05
 LinEq1:  Iter= 10 NonCon=     1 RMS=9.44D-08 Max=1.58D-06
 LinEq1:  Iter= 11 NonCon=     1 RMS=1.96D-08 Max=2.56D-07
 LinEq1:  Iter= 12 NonCon=     1 RMS=7.58D-09 Max=2.04D-07
 LinEq1:  Iter= 13 NonCon=     1 RMS=1.50D-09 Max=1.70D-08
 LinEq1:  Iter= 14 NonCon=     1 RMS=3.45D-10 Max=4.12D-09
 LinEq1:  Iter= 15 NonCon=     1 RMS=1.10D-10 Max=1.28D-09
 LinEq1:  Iter= 16 NonCon=     0 RMS=1.66D-11 Max=2.67D-10
 Linear equations converged to 1.000D-10 1.000D-09 after    16 iterations.
 End of Minotr Frequency-dependent properties file   721 does not exist.
 End of Minotr Frequency-dependent properties file   722 does not exist.
 Leave Link 1002 at Fri Dec  3 12:48:32 2021, MaxMem=  498073600 cpu:     104.5
 (Enter /apps/software//g09/l601.exe)
 Copying SCF densities to generalized density rwf, IOpCl= 0 IROHF=0.

 **********************************************************************

            Population analysis using the MP2 density.

 **********************************************************************

 Orbital symmetries:
       Occupied  (A') (A') (A') (A') (A') (A') (A') (A') (A') (A')
                 (A') (A') (A') (A') (A') (A') (A') (A') (A') (A')
                 (A") (A') (A') (A") (A') (A") (A")
       Virtual   (A') (A') (A') (A') (A') (A") (A') (A") (A") (A')
                 (A") (A') (A") (A') (A') (A") (A') (A') (A') (A')
                 (A') (A") (A') (A') (A") (A') (A') (A') (A") (A')
                 (A") (A') (A') (A') (A") (A') (A') (A') (A') (A')
                 (A') (A') (A") (A') (A') (A') (A') (A') (A') (A')
                 (A') (A') (A') (A') (A') (A') (A") (A') (A') (A')
                 (A") (A') (A") (A') (A") (A") (A') (A") (A') (A')
                 (A') (A") (A") (A') (A') (A') (A') (A') (A') (A')
                 (A') (A') (A') (A') (A') (A') (A') (A') (A") (A')
                 (A") (A') (A') (A") (A") (A') (A") (A") (A') (A")
                 (A') (A') (A') (A") (A') (A') (A') (A') (A") (A")
                 (A") (A") (A') (A') (A') (A') (A') (A") (A") (A")
                 (A') (A') (A') (A') (A') (A") (A') (A") (A') (A')
                 (A") (A') (A") (A') (A') (A") (A') (A") (A') (A')
                 (A') (A') (A") (A') (A') (A') (A') (A') (A') (A')
                 (A") (A') (A') (A') (A") (A') (A") (A") (A') (A")
                 (A') (A") (A") (A') (A') (A") (A') (A') (A') (A')
                 (A') (A') (A') (A') (A') (A') (A') (A') (A') (A')
                 (A') (A') (A') (A') (A') (A') (A') (A') (A') (A')
 The electronic state is 1-A'.
 Alpha  occ. eigenvalues --  -11.26953 -11.25087 -11.25083 -11.24899 -11.24628
 Alpha  occ. eigenvalues --  -11.24601 -11.24189 -11.23170  -1.17011  -1.06937
 Alpha  occ. eigenvalues --   -1.02794  -1.00020  -0.85735  -0.83873  -0.74968
 Alpha  occ. eigenvalues --   -0.70644  -0.66846  -0.64021  -0.61272  -0.59896
 Alpha  occ. eigenvalues --   -0.52567  -0.52148  -0.50846  -0.43082  -0.39936
 Alpha  occ. eigenvalues --   -0.34742  -0.32186
 Alpha virt. eigenvalues --    0.03732   0.04553   0.04852   0.05958   0.06923
 Alpha virt. eigenvalues --    0.07755   0.08146   0.10377   0.11878   0.11931
 Alpha virt. eigenvalues --    0.12919   0.13119   0.15019   0.15318   0.15640
 Alpha virt. eigenvalues --    0.15938   0.17069   0.18159   0.18204   0.18433
 Alpha virt. eigenvalues --    0.19453   0.20268   0.20470   0.21131   0.21332
 Alpha virt. eigenvalues --    0.21762   0.22169   0.22515   0.22611   0.23533
 Alpha virt. eigenvalues --    0.24926   0.26104   0.27457   0.27693   0.28433
 Alpha virt. eigenvalues --    0.29155   0.30491   0.33031   0.33174   0.34446
 Alpha virt. eigenvalues --    0.35474   0.35812   0.38636   0.40546   0.40994
 Alpha virt. eigenvalues --    0.41116   0.43373   0.44124   0.45539   0.49657
 Alpha virt. eigenvalues --    0.50385   0.53775   0.55993   0.60585   0.66868
 Alpha virt. eigenvalues --    0.67870   0.70643   0.71561   0.72356   0.72712
 Alpha virt. eigenvalues --    0.73101   0.73504   0.74937   0.76771   0.78255
 Alpha virt. eigenvalues --    0.81127   0.81356   0.82958   0.84310   0.84935
 Alpha virt. eigenvalues --    0.88166   0.88739   0.89543   0.91034   0.92134
 Alpha virt. eigenvalues --    0.94977   0.97182   0.98075   0.99777   1.00976
 Alpha virt. eigenvalues --    1.02988   1.04962   1.06819   1.07615   1.10483
 Alpha virt. eigenvalues --    1.11876   1.13071   1.15152   1.19626   1.21064
 Alpha virt. eigenvalues --    1.22484   1.23453   1.26021   1.30381   1.31361
 Alpha virt. eigenvalues --    1.35067   1.35658   1.37711   1.42375   1.44167
 Alpha virt. eigenvalues --    1.46583   1.53672   1.61615   1.63109   1.74504
 Alpha virt. eigenvalues --    1.75144   1.77995   1.78152   1.81088   1.81892
 Alpha virt. eigenvalues --    1.84196   1.86617   1.86960   1.89886   1.91242
 Alpha virt. eigenvalues --    1.92391   1.95175   2.00166   2.04773   2.07683
 Alpha virt. eigenvalues --    2.08143   2.09757   2.10820   2.17239   2.22277
 Alpha virt. eigenvalues --    2.22696   2.23699   2.23993   2.24167   2.27217
 Alpha virt. eigenvalues --    2.32243   2.32918   2.37109   2.37858   2.45359
 Alpha virt. eigenvalues --    2.57116   2.57676   2.65911   2.74610   2.77423
 Alpha virt. eigenvalues --    2.81648   2.82703   2.87576   2.93968   2.96204
 Alpha virt. eigenvalues --    2.97211   3.00967   3.01105   3.01378   3.03686
 Alpha virt. eigenvalues --    3.05810   3.06710   3.06791   3.09805   3.13137
 Alpha virt. eigenvalues --    3.17793   3.18403   3.24196   3.26710   3.28646
 Alpha virt. eigenvalues --    3.30803   3.35632   3.39494   3.43745   3.47443
 Alpha virt. eigenvalues --    3.48187   3.57903   3.60535   3.75178   3.76443
 Alpha virt. eigenvalues --    3.82399   3.90854   3.93908   3.97509   4.03998
 Alpha virt. eigenvalues --    4.13206   4.39894   4.44507   4.56691   4.56873
 Alpha virt. eigenvalues --    4.69356   5.26282  24.66890  24.91141  25.11220
 Alpha virt. eigenvalues --   25.11570  25.21505  25.25511  25.34740  26.32946
          Condensed to atoms (all electrons):
              1          2          3          4          5          6
     1  C   11.917317  -5.127552   4.605310  -3.169629   4.588446  -5.120463
     2  C   -5.127552  13.286249  -7.675197   3.142864  -3.895714   4.443075
     3  C    4.605310  -7.675197  19.478318  -4.794700   2.260837  -3.911542
     4  C   -3.169629   3.142864  -4.794700  13.198312  -4.778634   3.139869
     5  C    4.588446  -3.895714   2.260837  -4.778634  19.453572  -7.651395
     6  C   -5.120463   4.443075  -3.911542   3.139869  -7.651395  13.270048
     7  C   -0.358908  -0.191295  -1.048965  -5.445955  -1.090800  -0.182350
     8  H    0.139871  -0.096191   0.177269  -0.177372   0.782788  -0.383015
     9  H   -0.227952   0.096848  -0.060949   0.081001  -0.225509   0.579894
    10  H    0.552874  -0.202934   0.107310  -0.037121   0.106876  -0.202799
    11  H   -0.228186   0.580643  -0.226592   0.081199  -0.060434   0.096806
    12  H    0.140095  -0.383536   0.784392  -0.178333   0.176609  -0.096252
    13  C   -0.985415   1.669821  -2.283186   4.074322  -2.259102   1.666807
    14  H   -0.007504   0.013583  -0.018390   0.125034  -0.017543   0.013572
              7          8          9         10         11         12
     1  C   -0.358908   0.139871  -0.227952   0.552874  -0.228186   0.140095
     2  C   -0.191295  -0.096191   0.096848  -0.202934   0.580643  -0.383536
     3  C   -1.048965   0.177269  -0.060949   0.107310  -0.226592   0.784392
     4  C   -5.445955  -0.177372   0.081001  -0.037121   0.081199  -0.178333
     5  C   -1.090800   0.782788  -0.225509   0.106876  -0.060434   0.176609
     6  C   -0.182350  -0.383015   0.579894  -0.202799   0.096806  -0.096252
     7  C   29.716085   0.005651  -0.003767  -0.024663  -0.003974   0.006375
     8  H    0.005651   0.576034  -0.021718   0.002079  -0.000475   0.002579
     9  H   -0.003767  -0.021718   0.556339  -0.015355   0.000244  -0.000480
    10  H   -0.024663   0.002079  -0.015355   0.554710  -0.015359   0.002082
    11  H   -0.003974  -0.000475   0.000244  -0.015359   0.556352  -0.021747
    12  H    0.006375   0.002579  -0.000480   0.002082  -0.021747   0.576021
    13  C  -16.015066  -0.141989   0.033946  -0.005303   0.034006  -0.142146
    14  H   -0.651625  -0.000880   0.000398  -0.000004   0.000398  -0.000872
             13         14
     1  C   -0.985415  -0.007504
     2  C    1.669821   0.013583
     3  C   -2.283186  -0.018390
     4  C    4.074322   0.125034
     5  C   -2.259102  -0.017543
     6  C    1.666807   0.013572
     7  C  -16.015066  -0.651625
     8  H   -0.141989  -0.000880
     9  H    0.033946   0.000398
    10  H   -0.005303  -0.000004
    11  H    0.034006   0.000398
    12  H   -0.142146  -0.000872
    13  C   19.711124   0.881705
    14  H    0.881705   0.488245
 Mulliken atomic charges:
              1
     1  C   -0.718303
     2  C    0.339338
     3  C   -1.393914
     4  C    0.739144
     5  C   -1.389997
     6  C    0.337743
     7  C    1.289257
     8  H    0.135369
     9  H    0.207060
    10  H    0.177609
    11  H    0.207120
    12  H    0.135213
    13  C   -0.239522
    14  H    0.173882
 Sum of Mulliken atomic charges =   0.00000
 Mulliken charges with hydrogens summed into heavy atoms:
              1
     1  C   -0.540695
     2  C    0.546459
     3  C   -1.258702
     4  C    0.739144
     5  C   -1.254628
     6  C    0.544804
     7  C    1.289257
    13  C   -0.065640
 Sum of Mulliken charges with hydrogens summed into heavy atoms =   0.00000
 Electronic spatial extent (au):  <R**2>=            948.0248
 Charge=              0.0000 electrons
 Dipole moment (field-independent basis, Debye):
    X=              0.0023    Y=             -0.5712    Z=              0.0000  Tot=              0.5712
 Quadrupole moment (field-independent basis, Debye-Ang):
   XX=            -43.3308   YY=            -39.1644   ZZ=            -52.0401
   XY=              0.0080   XZ=              0.0000   YZ=              0.0000
 Traceless Quadrupole moment (field-independent basis, Debye-Ang):
   XX=              1.5143   YY=              5.6807   ZZ=             -7.1950
   XY=              0.0080   XZ=              0.0000   YZ=              0.0000
 Octapole moment (field-independent basis, Debye-Ang**2):
  XXX=              0.0116  YYY=             19.9027  ZZZ=              0.0000  XYY=              0.0304
  XXY=             -7.6699  XXZ=              0.0000  XZZ=              0.0014  YZZ=             -0.3561
  YYZ=              0.0000  XYZ=              0.0000
 Hexadecapole moment (field-independent basis, Debye-Ang**3):
 XXXX=           -289.2735 YYYY=           -753.0597 ZZZZ=            -63.9778 XXXY=              0.1391
 XXXZ=              0.0000 YYYX=              0.2350 YYYZ=              0.0000 ZZZX=              0.0000
 ZZZY=              0.0000 XXYY=           -217.5932 XXZZ=            -70.2926 YYZZ=           -196.6748
 XXYZ=              0.0000 YYXZ=              0.0000 ZZXY=              0.0482
 N-N= 2.989306812751D+02 E-N=-1.312178938030D+03  KE= 3.074738075977D+02
 Symmetry A'   KE= 2.987157599330D+02
 Symmetry A"   KE= 8.758047664662D+00
 No NMR shielding tensors so no spin-rotation constants.
 Leave Link  601 at Fri Dec  3 12:48:33 2021, MaxMem=  498073600 cpu:       2.4
 (Enter /apps/software//g09/l9999.exe)
 1\1\GINC-DLT06\SP\RMP2-FC\6-311++G(d,p)\C8H6\ITAMAR\03-Dec-2021\0\\#P 
 MP2/6-311++G** DENSITY=MP2\\X=CCH\\0,1\C,0,0.000609,-2.209655,0.\C,0,-
 1.206111,-1.510255,0.\C,0,-1.210765,-0.119555,0.\C,0,0.,0.593807,0.\C,
 0,1.211014,-0.118967,0.\C,0,1.206971,-1.509699,0.\C,0,-0.000485,2.0219
 87,0.\H,0,2.146431,0.427389,0.\H,0,2.147733,-2.048484,0.\H,0,0.000861,
 -3.293691,0.\H,0,-2.146617,-2.049491,0.\H,0,-2.146381,0.426446,0.\C,0,
 -0.001594,3.227049,0.\H,0,0.000141,4.289554,0.\\Version=EM64L-G09RevA.
 02\State=1-A'\HF=-306.4471519\MP2=-307.5318261\RMSD=8.798e-09\Dipole=0
 .0008894,-0.2247394,0.\Quadrupole=1.1258214,4.2234497,-5.3492712,0.005
 9734,0.,0.\PG=CS [SG(C8H6)]\\@


 I do not feel obliged to believe that the same God who
 has endowed us with sense, reason, and intellect has
 intended us to forgo their use.
                   --Galileo Galilei
 Job cpu time:  0 days  0 hours  8 minutes 17.5 seconds.
 File lengths (MBytes):  RWF=     23 Int=      0 D2E=      0 Chk=      5 Scr=      1
 Normal termination of Gaussian 09 at Fri Dec  3 12:48:33 2021.
