 Entering Gaussian System, Link 0=g09
 Initial command:
 /apps/software//g09/l1.exe /scratch/itamar/2435.cluster.abaxnet/Gau-10143.inp -scrdir=/scratch/itamar/2435.cluster.abaxnet/
 Entering Link 1 = /apps/software//g09/l1.exe PID=     10144.
  
 Copyright (c) 1988,1990,1992,1993,1995,1998,2003,2009, Gaussian, Inc.
                  All Rights Reserved.
  
 This is part of the Gaussian(R) 09 program.  It is based on
 the Gaussian(R) 03 system (copyright 2003, Gaussian, Inc.),
 the Gaussian(R) 98 system (copyright 1998, Gaussian, Inc.),
 the Gaussian(R) 94 system (copyright 1995, Gaussian, Inc.),
 the Gaussian 92(TM) system (copyright 1992, Gaussian, Inc.),
 the Gaussian 90(TM) system (copyright 1990, Gaussian, Inc.),
 the Gaussian 88(TM) system (copyright 1988, Gaussian, Inc.),
 the Gaussian 86(TM) system (copyright 1986, Carnegie Mellon
 University), and the Gaussian 82(TM) system (copyright 1983,
 Carnegie Mellon University). Gaussian is a federally registered
 trademark of Gaussian, Inc.
  
 This software contains proprietary and confidential information,
 including trade secrets, belonging to Gaussian, Inc.
  
 This software is provided under written license and may be
 used, copied, transmitted, or stored only in accord with that
 written license.
  
 The following legend is applicable only to US Government
 contracts under FAR:
  
                    RESTRICTED RIGHTS LEGEND
  
 Use, reproduction and disclosure by the US Government is
 subject to restrictions as set forth in subparagraphs (a)
 and (c) of the Commercial Computer Software - Restricted
 Rights clause in FAR 52.227-19.
  
 Gaussian, Inc.
 340 Quinnipiac St., Bldg. 40, Wallingford CT 06492
  
  
 ---------------------------------------------------------------
 Warning -- This program may not be used in any manner that
 competes with the business of Gaussian, Inc. or will provide
 assistance to any competitor of Gaussian, Inc.  The licensee
 of this program is prohibited from giving any competitor of
 Gaussian, Inc. access to this program.  By using this program,
 the user acknowledges that Gaussian, Inc. is engaged in the
 business of creating and licensing software in the field of
 computational chemistry and represents and warrants to the
 licensee that it is not a competitor of Gaussian, Inc. and that
 it will not use this program in any manner prohibited above.
 ---------------------------------------------------------------
  

 Cite this work as:
 Gaussian 09, Revision A.02,
 M. J. Frisch, G. W. Trucks, H. B. Schlegel, G. E. Scuseria, 
 M. A. Robb, J. R. Cheeseman, G. Scalmani, V. Barone, B. Mennucci, 
 G. A. Petersson, H. Nakatsuji, M. Caricato, X. Li, H. P. Hratchian, 
 A. F. Izmaylov, J. Bloino, G. Zheng, J. L. Sonnenberg, M. Hada, 
 M. Ehara, K. Toyota, R. Fukuda, J. Hasegawa, M. Ishida, T. Nakajima, 
 Y. Honda, O. Kitao, H. Nakai, T. Vreven, J. A. Montgomery, Jr., 
 J. E. Peralta, F. Ogliaro, M. Bearpark, J. J. Heyd, E. Brothers, 
 K. N. Kudin, V. N. Staroverov, R. Kobayashi, J. Normand, 
 K. Raghavachari, A. Rendell, J. C. Burant, S. S. Iyengar, J. Tomasi, 
 M. Cossi, N. Rega, J. M. Millam, M. Klene, J. E. Knox, J. B. Cross, 
 V. Bakken, C. Adamo, J. Jaramillo, R. Gomperts, R. E. Stratmann, 
 O. Yazyev, A. J. Austin, R. Cammi, C. Pomelli, J. W. Ochterski, 
 R. L. Martin, K. Morokuma, V. G. Zakrzewski, G. A. Voth, 
 P. Salvador, J. J. Dannenberg, S. Dapprich, A. D. Daniels, 
 O. Farkas, J. B. Foresman, J. V. Ortiz, J. Cioslowski, 
 and D. J. Fox, Gaussian, Inc., Wallingford CT, 2009.
 
 ******************************************
 Gaussian 09:  EM64L-G09RevA.02 11-Jun-2009
                 3-Dec-2021 
 ******************************************
 %Mem=3800MB
 %NProcShared=6
 Will use up to    6 processors via shared memory.
 %chk=/home/itamar/Aromaticity-test-set/T11-old-T12-Clar-systems/Benzo-pyrene/ben
 .chk
 -----------------------------
 #P MP2/6-311++G** DENSITY=MP2
 -----------------------------
 1/30=1,38=1/1;
 2/12=2,17=6,18=5,40=1/2;
 3/5=4,6=6,7=1111,11=9,16=1,25=1,30=1,71=1/1,2,3;
 4//1;
 5/5=2,38=5/2;
 8/6=4,10=2/1;
 9/15=1,16=-3/6;
 10/5=1,13=10/2;
 6/7=2,8=2,9=2,10=2,22=2/1;
 99/5=1,9=1/99;
 Leave Link    1 at Fri Dec  3 15:29:05 2021, MaxMem=  498073600 cpu:       0.1
 (Enter /apps/software//g09/l101.exe)
 ------------
 Benzo-pyrene
 ------------
 Symbolic Z-matrix:
 Charge =  0 Multiplicity = 1
 6                    -0.91865  -3.52407   0. 
 6                     0.29757  -2.8435    0. 
 6                     0.35605  -1.4448    0. 
 6                    -0.86784  -0.71735   0. 
 6                    -2.11065  -1.42062   0. 
 6                    -2.11313  -2.82373   0. 
 6                    -3.33774  -0.6781    0. 
 6                    -3.33774   0.6781    0. 
 6                    -2.11065   1.42062   0. 
 6                    -0.86784   0.71735   0. 
 6                     0.35605   1.4448    0. 
 6                     1.62461   0.70969   0. 
 6                     1.62461  -0.70969   0. 
 6                     0.29757   2.8435    0. 
 6                    -0.91865   3.52407   0. 
 6                    -2.11313   2.82373   0. 
 6                     2.86457  -1.38259   0. 
 6                     4.06508  -0.69962   0. 
 6                     4.06508   0.69962   0. 
 6                     2.86457   1.38259   0. 
 1                    -0.92355  -4.60819   0. 
 1                     1.20757  -3.42748   0. 
 1                    -3.06094  -3.35119   0. 
 1                    -4.27209  -1.22943   0. 
 1                    -4.27209   1.22943   0. 
 1                     1.20756   3.42748   0. 
 1                    -0.92356   4.60819   0. 
 1                    -3.06094   3.35118   0. 
 1                     2.88984  -2.46362   0. 
 1                     4.99998  -1.24829   0. 
 1                     4.99998   1.24829   0. 
 1                     2.88984   2.46362   0. 
 
 NAtoms=     32 NQM=     32 NQMF=      0 NMic=      0 NMicF=      0 NTot=     32.
                    Isotopes and Nuclear Properties:
 (Nuclear quadrupole moments (NQMom) in fm**2, nuclear magnetic moments (NMagM)
  in nuclear magnetons)

  Atom         1           2           3           4           5           6           7           8           9          10
 IAtWgt=          12          12          12          12          12          12          12          12          12          12
 AtmWgt=  12.0000000  12.0000000  12.0000000  12.0000000  12.0000000  12.0000000  12.0000000  12.0000000  12.0000000  12.0000000
 NucSpn=           0           0           0           0           0           0           0           0           0           0
 AtZEff=   0.0000000   0.0000000   0.0000000   0.0000000   0.0000000   0.0000000   0.0000000   0.0000000   0.0000000   0.0000000
 NQMom=    0.0000000   0.0000000   0.0000000   0.0000000   0.0000000   0.0000000   0.0000000   0.0000000   0.0000000   0.0000000
 NMagM=    0.0000000   0.0000000   0.0000000   0.0000000   0.0000000   0.0000000   0.0000000   0.0000000   0.0000000   0.0000000

  Atom        11          12          13          14          15          16          17          18          19          20
 IAtWgt=          12          12          12          12          12          12          12          12          12          12
 AtmWgt=  12.0000000  12.0000000  12.0000000  12.0000000  12.0000000  12.0000000  12.0000000  12.0000000  12.0000000  12.0000000
 NucSpn=           0           0           0           0           0           0           0           0           0           0
 AtZEff=   0.0000000   0.0000000   0.0000000   0.0000000   0.0000000   0.0000000   0.0000000   0.0000000   0.0000000   0.0000000
 NQMom=    0.0000000   0.0000000   0.0000000   0.0000000   0.0000000   0.0000000   0.0000000   0.0000000   0.0000000   0.0000000
 NMagM=    0.0000000   0.0000000   0.0000000   0.0000000   0.0000000   0.0000000   0.0000000   0.0000000   0.0000000   0.0000000

  Atom        21          22          23          24          25          26          27          28          29          30
 IAtWgt=           1           1           1           1           1           1           1           1           1           1
 AtmWgt=   1.0078250   1.0078250   1.0078250   1.0078250   1.0078250   1.0078250   1.0078250   1.0078250   1.0078250   1.0078250
 NucSpn=           1           1           1           1           1           1           1           1           1           1
 AtZEff=   0.0000000   0.0000000   0.0000000   0.0000000   0.0000000   0.0000000   0.0000000   0.0000000   0.0000000   0.0000000
 NQMom=    0.0000000   0.0000000   0.0000000   0.0000000   0.0000000   0.0000000   0.0000000   0.0000000   0.0000000   0.0000000
 NMagM=    2.7928460   2.7928460   2.7928460   2.7928460   2.7928460   2.7928460   2.7928460   2.7928460   2.7928460   2.7928460

  Atom        31          32
 IAtWgt=           1           1
 AtmWgt=   1.0078250   1.0078250
 NucSpn=           1           1
 AtZEff=   0.0000000   0.0000000
 NQMom=    0.0000000   0.0000000
 NMagM=    2.7928460   2.7928460
 Leave Link  101 at Fri Dec  3 15:29:05 2021, MaxMem=  498073600 cpu:       0.1
 (Enter /apps/software//g09/l202.exe)
                          Input orientation:                          
 ---------------------------------------------------------------------
 Center     Atomic      Atomic             Coordinates (Angstroms)
 Number     Number       Type             X           Y           Z
 ---------------------------------------------------------------------
      1          6           0       -0.918645   -3.524067    0.000000
      2          6           0        0.297569   -2.843503    0.000000
      3          6           0        0.356047   -1.444797    0.000000
      4          6           0       -0.867842   -0.717353    0.000000
      5          6           0       -2.110651   -1.420619    0.000000
      6          6           0       -2.113133   -2.823732    0.000000
      7          6           0       -3.337736   -0.678098    0.000000
      8          6           0       -3.337735    0.678096    0.000000
      9          6           0       -2.110654    1.420620    0.000000
     10          6           0       -0.867842    0.717353    0.000000
     11          6           0        0.356046    1.444797    0.000000
     12          6           0        1.624608    0.709685    0.000000
     13          6           0        1.624606   -0.709685    0.000000
     14          6           0        0.297566    2.843503    0.000000
     15          6           0       -0.918646    3.524069    0.000000
     16          6           0       -2.113134    2.823731    0.000000
     17          6           0        2.864569   -1.382586    0.000000
     18          6           0        4.065085   -0.699619    0.000000
     19          6           0        4.065085    0.699620    0.000000
     20          6           0        2.864569    1.382587    0.000000
     21          1           0       -0.923552   -4.608188    0.000000
     22          1           0        1.207566   -3.427479    0.000000
     23          1           0       -3.060941   -3.351185    0.000000
     24          1           0       -4.272087   -1.229433    0.000000
     25          1           0       -4.272090    1.229426    0.000000
     26          1           0        1.207563    3.427480    0.000000
     27          1           0       -0.923555    4.608189    0.000000
     28          1           0       -3.060943    3.351182    0.000000
     29          1           0        2.889844   -2.463617    0.000000
     30          1           0        4.999975   -1.248289    0.000000
     31          1           0        4.999977    1.248286    0.000000
     32          1           0        2.889844    2.463618    0.000000
 ---------------------------------------------------------------------
                    Distance matrix (angstroms):
                    1          2          3          4          5
     1  C    0.000000
     2  C    1.393680   0.000000
     3  C    2.438894   1.399928   0.000000
     4  C    2.807174   2.424602   1.423755   0.000000
     5  C    2.417720   2.797163   2.466816   1.427991   0.000000
     6  C    1.384655   2.410783   2.828129   2.446954   1.403115
     7  C    3.735176   4.231362   3.772514   2.470206   1.434251
     8  C    4.848729   5.061333   4.260364   2.836838   2.431119
     9  C    5.086336   4.897171   3.780903   2.472956   2.841239
    10  C    4.241724   3.746716   2.484511   1.434706   2.472953
    11  C    5.129761   4.288699   2.889594   2.484511   3.780900
    12  C    4.938906   3.792911   2.500208   2.872063   4.300041
    13  C    3.793267   2.512808   1.466162   2.492460   3.802311
    14  C    6.482678   5.687006   4.288699   3.746715   4.897167
    15  C    7.048136   6.482681   5.129763   4.241726   5.086336
    16  C    6.459206   6.158655   4.931246   3.753669   4.244351
    17  C    4.347258   2.953602   2.509293   3.791230   4.975365
    18  C    5.728444   4.334791   3.783154   4.932959   6.217681
    19  C    6.532771   5.171837   4.284330   5.132405   6.529558
    20  C    6.195802   4.944626   3.779786   4.282597   5.710585
    21  H    1.084132   2.145985   3.412392   3.891234   3.401441
    22  H    2.128404   1.081260   2.157803   3.413517   3.877893
    23  H    2.149260   3.396665   3.912815   3.427354   2.151775
    24  H    4.063363   4.846337   4.633142   3.442544   2.169875
    25  H    5.817327   6.121318   5.345196   3.921588   3.419731
    26  H    7.269441   6.336664   4.946126   4.635401   5.874913
    27  H    8.132257   7.551083   6.186762   5.325833   6.144569
    28  H    7.201284   7.046540   5.888738   4.621977   4.865505
    29  H    3.953371   2.619962   2.730956   4.143627   5.108111
    30  H    6.341075   4.965615   4.648084   5.891788   7.112714
    31  H    7.602989   6.233408   5.368313   6.188298   7.595004
    32  H    7.096264   5.906388   4.657879   4.923290   6.331844
                    6          7          8          9         10
     6  C    0.000000
     7  C    2.470506   0.000000
     8  C    3.709778   1.356194   0.000000
     9  C    4.244353   2.431121   1.434249   0.000000
    10  C    3.753669   2.836840   2.470205   1.427994   0.000000
    11  C    4.931246   4.260365   3.772512   2.466818   1.423754
    12  C    5.143515   5.152747   4.962444   3.802317   2.492462
    13  C    4.294169   4.962443   5.152743   4.300043   2.872061
    14  C    6.158654   5.061333   4.231359   2.797163   2.424601
    15  C    6.459209   4.848732   3.735178   2.417722   2.807176
    16  C    5.647463   3.709778   2.470505   1.403113   2.446953
    17  C    5.182125   6.242186   6.535670   5.710587   4.282597
    18  C    6.533164   7.402852   7.529930   6.529561   5.132405
    19  C    7.112270   7.529931   7.402851   6.217684   4.932959
    20  C    6.516950   6.535672   6.242186   4.975368   3.791230
    21  H    2.144618   4.612363   5.811461   6.144570   5.325832
    22  H    3.375137   5.312143   6.124990   5.874917   4.635402
    23  H    1.084687   2.687380   4.038777   4.865508   4.621978
    24  H    2.683817   1.084888   2.124072   3.419733   3.921589
    25  H    4.592296   2.124068   1.084889   2.169876   3.442546
    26  H    7.078465   6.124991   5.312141   3.877893   3.413516
    27  H    7.526523   5.811463   4.612363   3.401441   3.891235
    28  H    6.247232   4.038776   2.687378   2.151771   3.427353
    29  H    5.015921   6.478490   6.975177   6.331846   4.923289
    30  H    7.285487   8.357185   8.557357   7.595006   6.188297
    31  H    8.196198   8.557360   8.357186   7.112719   5.891790
    32  H    7.279138   6.975180   6.478490   5.108114   4.143627
                   11         12         13         14         15
    11  C    0.000000
    12  C    1.466165   0.000000
    13  C    2.500207   1.419370   0.000000
    14  C    1.399928   2.512811   3.792912   0.000000
    15  C    2.438896   3.793270   4.938907   1.393679   0.000000
    16  C    2.828128   4.294171   5.143513   2.410781   1.384657
    17  C    3.779786   2.432098   1.410781   4.944627   6.195803
    18  C    4.284331   2.818167   2.440500   5.171838   6.532772
    19  C    3.783155   2.440498   2.818169   4.334793   5.728445
    20  C    2.509294   1.410780   2.432100   2.953605   4.347259
    21  H    6.186760   5.896854   4.657406   7.551081   8.132258
    22  H    4.946126   4.158131   2.749605   6.336664   7.269443
    23  H    5.888739   6.200406   5.378836   7.046540   7.201288
    24  H    5.345196   6.207350   5.919555   6.121318   5.817332
    25  H    4.633144   5.919559   6.207348   4.846339   4.063370
    26  H    2.157803   2.749607   4.158132   1.081260   2.128402
    27  H    3.412393   4.657410   5.896856   2.145985   1.084131
    28  H    3.912815   5.378838   6.200404   3.396663   2.149262
    29  H    4.657879   3.416236   2.162661   5.906389   7.096265
    30  H    5.368313   3.902149   3.418071   6.233411   7.602991
    31  H    4.648087   3.418071   3.902151   4.965620   6.341079
    32  H    2.730957   2.162661   3.416238   2.619965   3.953372
                   16         17         18         19         20
    16  C    0.000000
    17  C    6.516949   0.000000
    18  C    7.112270   1.381189   0.000000
    19  C    6.533164   2.403502   1.399239   0.000000
    20  C    5.182125   2.765173   2.403502   1.381189   0.000000
    21  H    7.526521   4.975376   6.337461   7.284183   7.087965
    22  H    7.078466   2.631966   3.950523   5.019797   5.087474
    23  H    6.247233   6.243961   7.603358   8.196906   7.584212
    24  H    4.592300   7.138299   8.353989   8.557434   7.599639
    25  H    2.683822   7.599639   8.557435   8.353992   7.138302
    26  H    3.375136   5.087475   5.019799   3.950526   2.631968
    27  H    2.144619   7.087966   7.284185   6.337463   4.975379
    28  H    1.084687   7.584211   8.196906   7.603358   6.243962
    29  H    7.279137   1.081326   2.119642   3.374501   3.846287
    30  H    8.196198   2.139625   1.084001   2.160641   3.388431
    31  H    7.285491   3.388430   2.160638   1.084001   2.139627
    32  H    5.015922   3.846287   3.374501   2.119642   1.081326
                   21         22         23         24         25
    21  H    0.000000
    22  H    2.436337   0.000000
    23  H    2.479615   4.269189   0.000000
    24  H    4.756960   5.904067   2.443094   0.000000
    25  H    6.729818   7.191203   4.738025   2.458859   0.000000
    26  H    8.313460   6.854959   8.010645   7.191203   5.904070
    27  H    9.216377   8.313461   8.241362   6.729821   4.756966
    28  H    8.241360   8.010644   6.702367   4.738027   2.443098
    29  H    4.375063   1.938837   6.016612   7.267494   8.058031
    30  H    6.810073   4.373927   8.330699   9.272081   9.597409
    31  H    8.329855   6.020395   9.280815   9.597409   9.272086
    32  H    8.034453   6.126588   8.320083   8.058032   7.267498
                   26         27         28         29         30
    26  H    0.000000
    27  H    2.436337   0.000000
    28  H    4.269188   2.479616   0.000000
    29  H    6.126589   8.034454   8.320081   0.000000
    30  H    6.020399   8.329858   9.280815   2.435092   0.000000
    31  H    4.373933   6.810079   8.330702   4.269764   2.496575
    32  H    1.938840   4.375065   6.016613   4.927235   4.269767
                   31         32
    31  H    0.000000
    32  H    2.435096   0.000000
 Stoichiometry    C20H12
 Framework group  CS[SG(C20H12)]
 Deg. of freedom    61
 Full point group                 CS      NOp   2
 Largest Abelian subgroup         CS      NOp   2
 Largest concise Abelian subgroup C1      NOp   1
                         Standard orientation:                         
 ---------------------------------------------------------------------
 Center     Atomic      Atomic             Coordinates (Angstroms)
 Number     Number       Type             X           Y           Z
 ---------------------------------------------------------------------
      1          6           0       -0.918645   -3.524067    0.000000
      2          6           0        0.297569   -2.843503    0.000000
      3          6           0        0.356047   -1.444797    0.000000
      4          6           0       -0.867842   -0.717353    0.000000
      5          6           0       -2.110651   -1.420619    0.000000
      6          6           0       -2.113133   -2.823732    0.000000
      7          6           0       -3.337736   -0.678098    0.000000
      8          6           0       -3.337735    0.678096    0.000000
      9          6           0       -2.110654    1.420620    0.000000
     10          6           0       -0.867842    0.717353    0.000000
     11          6           0        0.356046    1.444797    0.000000
     12          6           0        1.624608    0.709685    0.000000
     13          6           0        1.624606   -0.709685    0.000000
     14          6           0        0.297566    2.843503    0.000000
     15          6           0       -0.918646    3.524069    0.000000
     16          6           0       -2.113134    2.823731    0.000000
     17          6           0        2.864569   -1.382586    0.000000
     18          6           0        4.065085   -0.699619    0.000000
     19          6           0        4.065085    0.699620    0.000000
     20          6           0        2.864569    1.382587    0.000000
     21          1           0       -0.923552   -4.608188    0.000000
     22          1           0        1.207566   -3.427479    0.000000
     23          1           0       -3.060941   -3.351185    0.000000
     24          1           0       -4.272087   -1.229433    0.000000
     25          1           0       -4.272090    1.229426    0.000000
     26          1           0        1.207563    3.427480    0.000000
     27          1           0       -0.923555    4.608189    0.000000
     28          1           0       -3.060943    3.351182    0.000000
     29          1           0        2.889844   -2.463617    0.000000
     30          1           0        4.999975   -1.248289    0.000000
     31          1           0        4.999977    1.248286    0.000000
     32          1           0        2.889844    2.463618    0.000000
 ---------------------------------------------------------------------
 Rotational constants (GHZ):      0.5143048      0.3859690      0.2204948
 Leave Link  202 at Fri Dec  3 15:29:05 2021, MaxMem=  498073600 cpu:       0.0
 (Enter /apps/software//g09/l301.exe)
 Standard basis: 6-311++G(d,p) (5D, 7F)
 Ernie: Thresh=  0.10000D-02 Tol=  0.10000D-05 Strict=F.
 There are   392 symmetry adapted basis functions of A'  symmetry.
 There are   132 symmetry adapted basis functions of A"  symmetry.
 Integral buffers will be    131072 words long.
 Raffenetti 1 integral format.
 Two-electron integral symmetry is turned on.
   524 basis functions,   828 primitive gaussians,   544 cartesian basis functions
    66 alpha electrons       66 beta electrons
       nuclear repulsion energy      1370.5183819783 Hartrees.
 IExCor=    0 DFT=F Ex=HF Corr=None ExCW=0 ScaHFX=  1.000000
 ScaDFX=  1.000000  1.000000  1.000000  1.000000 ScalE2=  1.000000  1.000000
 IRadAn=      0 IRanWt=     -1 IRanGd=            0 ICorTp=0
 NAtoms=   32 NActive=   32 NUniq=   32 SFac= 7.50D-01 NAtFMM=   80 NAOKFM=F Big=F
 Leave Link  301 at Fri Dec  3 15:29:05 2021, MaxMem=  498073600 cpu:       0.1
 (Enter /apps/software//g09/l302.exe)
 NPDir=0 NMtPBC=     1 NCelOv=     1 NCel=       1 NClECP=     1 NCelD=      1
         NCelK=      1 NCelE2=     1 NClLst=     1 CellRange=     0.0.
 One-electron integrals computed using PRISM.
 NBasis=   524 RedAO= T  NBF=   392   132
 NBsUse=   511 1.00D-06 NBFU=   379   132
 Leave Link  302 at Fri Dec  3 15:29:06 2021, MaxMem=  498073600 cpu:       1.8
 (Enter /apps/software//g09/l303.exe)
 DipDrv:  MaxL=1.
 Leave Link  303 at Fri Dec  3 15:29:06 2021, MaxMem=  498073600 cpu:       0.3
 (Enter /apps/software//g09/l401.exe)
 Harris functional with IExCor=  205 diagonalized for initial guess.
 ExpMin= 3.60D-02 ExpMax= 4.56D+03 ExpMxC= 6.82D+02 IAcc=3 IRadAn=         0 AccDes= 0.00D+00
 HarFok:  IExCor=  205 AccDes= 0.00D+00 IRadAn=         0 IDoV= 1
 ScaDFX=  1.000000  1.000000  1.000000  1.000000
 FoFCou: FMM=F IPFlag=           0 FMFlag=      100000 FMFlg1=           0
         NFxFlg=           0 DoJE=T BraDBF=F KetDBF=T FulRan=T
         Omega=  0.000000  0.000000  1.000000  0.000000  0.000000 ICntrl=     500 IOpCl=  0
         NMat0=    1 NMatS0=    1 NMatT0=    0 NMatD0=    1 NMtDS0=    0 NMtDT0=    0
         I1Cent=           4 NGrid=           0.
 Petite list used in FoFCou.
 Harris En= -765.636526403550    
 Initial guess orbital symmetries:
       Occupied  (A') (A') (A') (A') (A') (A') (A') (A') (A') (A')
                 (A') (A') (A') (A') (A') (A') (A') (A') (A') (A')
                 (A') (A') (A') (A') (A') (A') (A') (A') (A') (A')
                 (A') (A') (A') (A') (A') (A') (A') (A') (A') (A')
                 (A') (A') (A') (A') (A') (A') (A') (A') (A') (A")
                 (A') (A') (A') (A') (A") (A') (A") (A') (A') (A")
                 (A") (A") (A") (A") (A") (A")
       Virtual   (A") (A") (A") (A") (A") (A") (A") (A') (A') (A')
                 (A") (A') (A") (A') (A') (A') (A') (A') (A') (A')
                 (A") (A') (A') (A") (A") (A') (A') (A') (A') (A")
                 (A") (A') (A') (A") (A') (A') (A') (A") (A') (A')
                 (A') (A') (A') (A') (A") (A") (A') (A') (A') (A')
                 (A') (A') (A') (A") (A') (A") (A') (A') (A") (A')
                 (A') (A') (A") (A') (A') (A') (A') (A') (A") (A')
                 (A") (A') (A') (A') (A") (A') (A') (A') (A") (A')
                 (A') (A') (A") (A') (A") (A') (A') (A') (A') (A')
                 (A') (A') (A") (A') (A') (A') (A') (A') (A') (A')
                 (A') (A') (A') (A') (A") (A') (A') (A') (A') (A')
                 (A') (A') (A') (A') (A') (A') (A') (A') (A') (A')
                 (A') (A') (A') (A') (A") (A") (A") (A') (A") (A')
                 (A') (A') (A") (A') (A") (A') (A") (A') (A') (A')
                 (A") (A") (A') (A') (A") (A') (A") (A') (A') (A')
                 (A') (A") (A') (A') (A") (A") (A") (A') (A") (A')
                 (A") (A') (A') (A') (A") (A') (A') (A') (A") (A')
                 (A') (A') (A') (A') (A") (A') (A") (A') (A') (A')
                 (A') (A') (A') (A') (A') (A") (A') (A') (A') (A')
                 (A') (A') (A") (A') (A') (A') (A") (A") (A') (A")
                 (A') (A') (A") (A') (A') (A") (A') (A') (A") (A")
                 (A") (A") (A") (A') (A") (A') (A") (A") (A') (A')
                 (A') (A') (A') (A') (A') (A') (A') (A') (A') (A')
                 (A') (A') (A') (A") (A') (A') (A") (A") (A') (A")
                 (A') (A') (A') (A') (A') (A") (A') (A') (A") (A')
                 (A") (A") (A") (A') (A') (A") (A') (A') (A') (A')
                 (A') (A') (A') (A") (A') (A") (A") (A") (A') (A")
                 (A") (A') (A') (A") (A') (A") (A') (A') (A") (A")
                 (A') (A') (A") (A') (A") (A") (A') (A') (A') (A")
                 (A') (A') (A") (A') (A') (A') (A") (A') (A') (A')
                 (A') (A') (A') (A') (A") (A") (A') (A') (A') (A")
                 (A") (A') (A') (A") (A') (A") (A') (A") (A") (A')
                 (A') (A') (A') (A') (A") (A') (A") (A') (A') (A')
                 (A') (A') (A') (A') (A") (A') (A") (A') (A") (A")
                 (A") (A') (A") (A') (A') (A') (A') (A') (A') (A')
                 (A') (A") (A") (A') (A') (A') (A") (A') (A") (A')
                 (A') (A') (A') (A") (A') (A') (A") (A") (A') (A")
                 (A') (A") (A') (A") (A') (A") (A') (A") (A") (A')
                 (A") (A') (A') (A') (A') (A') (A') (A') (A') (A')
                 (A') (A') (A') (A') (A') (A') (A') (A') (A') (A')
                 (A') (A') (A') (A') (A') (A') (A') (A') (A') (A')
                 (A') (A') (A') (A') (A') (A') (A') (A') (A') (A')
                 (A') (A') (A') (A') (A') (A') (A') (A') (A') (A')
                 (A') (A') (A') (A') (A') (A') (A') (A') (A') (A')
                 (A') (A') (A') (A') (A')
 The electronic state of the initial guess is 1-A'.
 Leave Link  401 at Fri Dec  3 15:29:07 2021, MaxMem=  498073600 cpu:       6.9
 (Enter /apps/software//g09/l502.exe)
 Closed shell SCF:
 Requested convergence on RMS density matrix=1.00D-08 within 128 cycles.
 Requested convergence on MAX density matrix=1.00D-06.
 Requested convergence on             energy=1.00D-06.
 No special actions if energy rises.
 Using DIIS extrapolation, IDIIS=  1040.
 Integral symmetry usage will be decided dynamically.
 IEnd=      913430 IEndB=      913430 NGot=   498073600 MDV=   497473291
 LenX=   497473291 LenY=   497176811
 Fock matrices will be formed incrementally for  20 cycles.

 Cycle   1  Pass 0  IDiag  1:
 FoFCou: FMM=F IPFlag=           0 FMFlag=      100000 FMFlg1=           0
         NFxFlg=           0 DoJE=F BraDBF=F KetDBF=F FulRan=T
         Omega=  0.000000  0.000000  1.000000  0.000000  0.000000 ICntrl=       0 IOpCl=  0
         NMat0=    1 NMatS0=    1 NMatT0=    0 NMatD0=    1 NMtDS0=    0 NMtDT0=    0
         I1Cent=           0 NGrid=           0.
 Petite list used in FoFCou.
 E= -763.780647464761    
 DIIS: error= 7.22D-02 at cycle   1 NSaved=   1.
 NSaved= 1 IEnMin= 1 EnMin= -763.780647464761     IErMin= 1 ErrMin= 7.22D-02
 ErrMax= 7.22D-02 EMaxC= 1.00D-01 BMatC= 1.53D+00 BMatP= 1.53D+00
 IDIUse=3 WtCom= 2.78D-01 WtEn= 7.22D-01
 Coeff-Com:  0.100D+01
 Coeff-En:   0.100D+01
 Coeff:      0.100D+01
 Gap=     0.282 Goal=   None    Shift=    0.000
 GapD=    0.282 DampG=1.000 DampE=0.500 DampFc=0.5000 IDamp=-1.
 Damping current iteration by 5.00D-01
 RMSDP=1.74D-02 MaxDP=9.17D-01              OVMax= 1.56D-01

 Cycle   2  Pass 0  IDiag  1:
 RMSU=  4.92D-03    CP:  1.10D+00
 E= -764.190341811544     Delta-E=       -0.409694346783 Rises=F Damp=T
 DIIS: error= 3.14D-02 at cycle   2 NSaved=   2.
 NSaved= 2 IEnMin= 2 EnMin= -764.190341811544     IErMin= 2 ErrMin= 3.14D-02
 ErrMax= 3.14D-02 EMaxC= 1.00D-01 BMatC= 3.62D-01 BMatP= 1.53D+00
 IDIUse=3 WtCom= 6.86D-01 WtEn= 3.14D-01
 Coeff-Com: -0.814D+00 0.181D+01
 Coeff-En:   0.000D+00 0.100D+01
 Coeff:     -0.558D+00 0.156D+01
 Gap=     0.307 Goal=   None    Shift=    0.000
 RMSDP=8.30D-03 MaxDP=5.69D-01 DE=-4.10D-01 OVMax= 4.03D-02

 Cycle   3  Pass 0  IDiag  1:
 RMSU=  2.43D-03    CP:  9.59D-01  1.23D+00
 E= -764.566678144525     Delta-E=       -0.376336332981 Rises=F Damp=F
 DIIS: error= 3.35D-03 at cycle   3 NSaved=   3.
 NSaved= 3 IEnMin= 3 EnMin= -764.566678144525     IErMin= 3 ErrMin= 3.35D-03
 ErrMax= 3.35D-03 EMaxC= 1.00D-01 BMatC= 3.56D-03 BMatP= 3.62D-01
 IDIUse=3 WtCom= 9.67D-01 WtEn= 3.35D-02
 Coeff-Com: -0.107D+00 0.181D+00 0.926D+00
 Coeff-En:   0.000D+00 0.000D+00 0.100D+01
 Coeff:     -0.104D+00 0.175D+00 0.929D+00
 Gap=     0.305 Goal=   None    Shift=    0.000
 RMSDP=2.00D-03 MaxDP=1.25D-01 DE=-3.76D-01 OVMax= 1.81D-02

 Cycle   4  Pass 0  IDiag  1:
 RMSU=  8.38D-04    CP:  9.29D-01  1.21D+00  9.41D-01
 E= -764.569689683238     Delta-E=       -0.003011538713 Rises=F Damp=F
 DIIS: error= 2.38D-03 at cycle   4 NSaved=   4.
 NSaved= 4 IEnMin= 4 EnMin= -764.569689683238     IErMin= 4 ErrMin= 2.38D-03
 ErrMax= 2.38D-03 EMaxC= 1.00D-01 BMatC= 7.98D-04 BMatP= 3.56D-03
 IDIUse=3 WtCom= 9.76D-01 WtEn= 2.38D-02
 Coeff-Com: -0.148D-01 0.132D-01 0.330D+00 0.671D+00
 Coeff-En:   0.000D+00 0.000D+00 0.000D+00 0.100D+01
 Coeff:     -0.144D-01 0.129D-01 0.322D+00 0.679D+00
 Gap=     0.301 Goal=   None    Shift=    0.000
 RMSDP=3.89D-04 MaxDP=1.56D-02 DE=-3.01D-03 OVMax= 8.96D-03

 Cycle   5  Pass 0  IDiag  1:
 RMSU=  2.63D-04    CP:  9.28D-01  1.22D+00  9.64D-01  1.04D+00
 E= -764.570539766503     Delta-E=       -0.000850083265 Rises=F Damp=F
 DIIS: error= 8.37D-04 at cycle   5 NSaved=   5.
 NSaved= 5 IEnMin= 5 EnMin= -764.570539766503     IErMin= 5 ErrMin= 8.37D-04
 ErrMax= 8.37D-04 EMaxC= 1.00D-01 BMatC= 6.68D-05 BMatP= 7.98D-04
 IDIUse=3 WtCom= 9.92D-01 WtEn= 8.37D-03
 Coeff-Com:  0.930D-02-0.177D-01-0.568D-01 0.155D+00 0.911D+00
 Coeff-En:   0.000D+00 0.000D+00 0.000D+00 0.000D+00 0.100D+01
 Coeff:      0.922D-02-0.175D-01-0.563D-01 0.153D+00 0.911D+00
 Gap=     0.302 Goal=   None    Shift=    0.000
 RMSDP=1.37D-04 MaxDP=9.41D-03 DE=-8.50D-04 OVMax= 3.75D-03

 Cycle   6  Pass 0  IDiag  1:
 RMSU=  6.21D-05    CP:  9.27D-01  1.22D+00  9.82D-01  1.07D+00  9.14D-01
 E= -764.570651026604     Delta-E=       -0.000111260101 Rises=F Damp=F
 DIIS: error= 2.54D-04 at cycle   6 NSaved=   6.
 NSaved= 6 IEnMin= 6 EnMin= -764.570651026604     IErMin= 6 ErrMin= 2.54D-04
 ErrMax= 2.54D-04 EMaxC= 1.00D-01 BMatC= 4.57D-06 BMatP= 6.68D-05
 IDIUse=3 WtCom= 9.97D-01 WtEn= 2.54D-03
 Coeff-Com:  0.294D-02-0.445D-02-0.363D-01-0.453D-01 0.115D+00 0.968D+00
 Coeff-En:   0.000D+00 0.000D+00 0.000D+00 0.000D+00 0.000D+00 0.100D+01
 Coeff:      0.294D-02-0.443D-02-0.362D-01-0.452D-01 0.115D+00 0.968D+00
 Gap=     0.302 Goal=   None    Shift=    0.000
 RMSDP=6.61D-05 MaxDP=2.76D-03 DE=-1.11D-04 OVMax= 1.55D-03

 Cycle   7  Pass 0  IDiag  1:
 RMSU=  2.45D-05    CP:  9.27D-01  1.22D+00  9.82D-01  1.11D+00  9.93D-01
                    CP:  1.16D+00
 E= -764.570663297724     Delta-E=       -0.000012271120 Rises=F Damp=F
 DIIS: error= 1.05D-04 at cycle   7 NSaved=   7.
 NSaved= 7 IEnMin= 7 EnMin= -764.570663297724     IErMin= 7 ErrMin= 1.05D-04
 ErrMax= 1.05D-04 EMaxC= 1.00D-01 BMatC= 5.14D-07 BMatP= 4.57D-06
 IDIUse=3 WtCom= 9.99D-01 WtEn= 1.05D-03
 Coeff-Com: -0.366D-03 0.847D-03-0.122D-03-0.183D-01-0.551D-01 0.107D+00
 Coeff-Com:  0.966D+00
 Coeff-En:   0.000D+00 0.000D+00 0.000D+00 0.000D+00 0.000D+00 0.000D+00
 Coeff-En:   0.100D+01
 Coeff:     -0.366D-03 0.846D-03-0.122D-03-0.183D-01-0.550D-01 0.107D+00
 Coeff:      0.966D+00
 Gap=     0.303 Goal=   None    Shift=    0.000
 RMSDP=1.87D-05 MaxDP=1.05D-03 DE=-1.23D-05 OVMax= 6.80D-04

 Cycle   8  Pass 0  IDiag  1:
 RMSU=  8.12D-06    CP:  9.27D-01  1.22D+00  9.82D-01  1.11D+00  9.94D-01
                    CP:  1.24D+00  1.23D+00
 E= -764.570665343132     Delta-E=       -0.000002045408 Rises=F Damp=F
 DIIS: error= 5.43D-05 at cycle   8 NSaved=   8.
 NSaved= 8 IEnMin= 8 EnMin= -764.570665343132     IErMin= 8 ErrMin= 5.43D-05
 ErrMax= 5.43D-05 EMaxC= 1.00D-01 BMatC= 1.01D-07 BMatP= 5.14D-07
 IDIUse=1 WtCom= 1.00D+00 WtEn= 0.00D+00
 Coeff-Com: -0.550D-03 0.843D-03 0.656D-02 0.982D-02-0.147D-01-0.201D+00
 Coeff-Com: -0.534D-01 0.125D+01
 Coeff:     -0.550D-03 0.843D-03 0.656D-02 0.982D-02-0.147D-01-0.201D+00
 Coeff:     -0.534D-01 0.125D+01
 Gap=     0.303 Goal=   None    Shift=    0.000
 RMSDP=1.70D-05 MaxDP=1.01D-03 DE=-2.05D-06 OVMax= 4.73D-04

 Cycle   9  Pass 0  IDiag  1:
 RMSU=  3.22D-06    CP:  9.27D-01  1.21D+00  9.81D-01  1.12D+00  9.95D-01
                    CP:  1.29D+00  1.52D+00  1.41D+00
 E= -764.570665872251     Delta-E=       -0.000000529119 Rises=F Damp=F
 DIIS: error= 1.39D-05 at cycle   9 NSaved=   9.
 NSaved= 9 IEnMin= 9 EnMin= -764.570665872251     IErMin= 9 ErrMin= 1.39D-05
 ErrMax= 1.39D-05 EMaxC= 1.00D-01 BMatC= 1.40D-08 BMatP= 1.01D-07
 IDIUse=1 WtCom= 1.00D+00 WtEn= 0.00D+00
 Coeff-Com: -0.149D-03 0.204D-03 0.202D-02 0.512D-02 0.177D-02-0.730D-01
 Coeff-Com: -0.128D+00 0.381D+00 0.811D+00
 Coeff:     -0.149D-03 0.204D-03 0.202D-02 0.512D-02 0.177D-02-0.730D-01
 Coeff:     -0.128D+00 0.381D+00 0.811D+00
 Gap=     0.303 Goal=   None    Shift=    0.000
 RMSDP=3.30D-06 MaxDP=1.56D-04 DE=-5.29D-07 OVMax= 1.14D-04

 Initial convergence to 1.0D-05 achieved.  Increase integral accuracy.
 Cycle  10  Pass 1  IDiag  1:
 E= -764.570665908974     Delta-E=       -0.000000036723 Rises=F Damp=F
 DIIS: error= 5.39D-06 at cycle   1 NSaved=   1.
 NSaved= 1 IEnMin= 1 EnMin= -764.570665908974     IErMin= 1 ErrMin= 5.39D-06
 ErrMax= 5.39D-06 EMaxC= 1.00D-01 BMatC= 1.19D-09 BMatP= 1.19D-09
 IDIUse=1 WtCom= 1.00D+00 WtEn= 0.00D+00
 Coeff-Com:  0.100D+01
 Coeff:      0.100D+01
 Gap=     0.303 Goal=   None    Shift=    0.000
 RMSDP=3.30D-06 MaxDP=1.56D-04 DE=-3.67D-08 OVMax= 2.90D-05

 Cycle  11  Pass 1  IDiag  1:
 RMSU=  7.41D-07    CP:  1.00D+00
 E= -764.570665912555     Delta-E=       -0.000000003581 Rises=F Damp=F
 DIIS: error= 3.15D-06 at cycle   2 NSaved=   2.
 NSaved= 2 IEnMin= 2 EnMin= -764.570665912555     IErMin= 2 ErrMin= 3.15D-06
 ErrMax= 3.15D-06 EMaxC= 1.00D-01 BMatC= 6.29D-10 BMatP= 1.19D-09
 IDIUse=1 WtCom= 1.00D+00 WtEn= 0.00D+00
 Coeff-Com:  0.356D+00 0.644D+00
 Coeff:      0.356D+00 0.644D+00
 Gap=     0.303 Goal=   None    Shift=    0.000
 RMSDP=3.18D-07 MaxDP=2.05D-05 DE=-3.58D-09 OVMax= 1.62D-05

 Cycle  12  Pass 1  IDiag  1:
 RMSU=  2.24D-07    CP:  1.00D+00  9.78D-01
 E= -764.570665913901     Delta-E=       -0.000000001346 Rises=F Damp=F
 DIIS: error= 2.08D-06 at cycle   3 NSaved=   3.
 NSaved= 3 IEnMin= 3 EnMin= -764.570665913901     IErMin= 3 ErrMin= 2.08D-06
 ErrMax= 2.08D-06 EMaxC= 1.00D-01 BMatC= 1.55D-10 BMatP= 6.29D-10
 IDIUse=1 WtCom= 1.00D+00 WtEn= 0.00D+00
 Coeff-Com: -0.513D+00-0.273D+00 0.179D+01
 Coeff:     -0.513D+00-0.273D+00 0.179D+01
 Gap=     0.303 Goal=   None    Shift=    0.000
 RMSDP=5.32D-07 MaxDP=2.23D-05 DE=-1.35D-09 OVMax= 2.83D-05

 Cycle  13  Pass 1  IDiag  1:
 RMSU=  1.08D-07    CP:  1.00D+00  1.41D+00  1.74D+00
 E= -764.570665915283     Delta-E=       -0.000000001382 Rises=F Damp=F
 DIIS: error= 5.55D-07 at cycle   4 NSaved=   4.
 NSaved= 4 IEnMin= 4 EnMin= -764.570665915283     IErMin= 4 ErrMin= 5.55D-07
 ErrMax= 5.55D-07 EMaxC= 1.00D-01 BMatC= 1.91D-11 BMatP= 1.55D-10
 IDIUse=1 WtCom= 1.00D+00 WtEn= 0.00D+00
 Coeff-Com: -0.141D+00-0.141D+00 0.311D+00 0.972D+00
 Coeff:     -0.141D+00-0.141D+00 0.311D+00 0.972D+00
 Gap=     0.303 Goal=   None    Shift=    0.000
 RMSDP=1.59D-07 MaxDP=6.72D-06 DE=-1.38D-09 OVMax= 8.75D-06

 Cycle  14  Pass 1  IDiag  1:
 RMSU=  5.60D-08    CP:  1.00D+00  1.50D+00  1.90D+00  1.41D+00
 E= -764.570665915418     Delta-E=       -0.000000000135 Rises=F Damp=F
 DIIS: error= 2.77D-07 at cycle   5 NSaved=   5.
 NSaved= 5 IEnMin= 5 EnMin= -764.570665915418     IErMin= 5 ErrMin= 2.77D-07
 ErrMax= 2.77D-07 EMaxC= 1.00D-01 BMatC= 3.25D-12 BMatP= 1.91D-11
 IDIUse=1 WtCom= 1.00D+00 WtEn= 0.00D+00
 Coeff-Com:  0.126D+00 0.701D-01-0.417D+00-0.102D+00 0.132D+01
 Coeff:      0.126D+00 0.701D-01-0.417D+00-0.102D+00 0.132D+01
 Gap=     0.303 Goal=   None    Shift=    0.000
 RMSDP=8.75D-08 MaxDP=6.08D-06 DE=-1.35D-10 OVMax= 4.25D-06

 Cycle  15  Pass 1  IDiag  1:
 RMSU=  2.48D-08    CP:  1.00D+00  1.51D+00  1.95D+00  1.78D+00  1.30D+00
 E= -764.570665915429     Delta-E=       -0.000000000011 Rises=F Damp=F
 DIIS: error= 9.32D-08 at cycle   6 NSaved=   6.
 NSaved= 6 IEnMin= 6 EnMin= -764.570665915429     IErMin= 6 ErrMin= 9.32D-08
 ErrMax= 9.32D-08 EMaxC= 1.00D-01 BMatC= 5.17D-13 BMatP= 3.25D-12
 IDIUse=1 WtCom= 1.00D+00 WtEn= 0.00D+00
 Coeff-Com:  0.443D-01 0.320D-01-0.125D+00-0.132D+00 0.286D+00 0.894D+00
 Coeff:      0.443D-01 0.320D-01-0.125D+00-0.132D+00 0.286D+00 0.894D+00
 Gap=     0.303 Goal=   None    Shift=    0.000
 RMSDP=1.73D-08 MaxDP=8.00D-07 DE=-1.14D-11 OVMax= 9.11D-07

 Cycle  16  Pass 1  IDiag  1:
 RMSU=  6.74D-09    CP:  1.00D+00  1.51D+00  1.95D+00  1.83D+00  1.41D+00
                    CP:  1.24D+00
 E= -764.570665915438     Delta-E=       -0.000000000010 Rises=F Damp=F
 DIIS: error= 5.79D-08 at cycle   7 NSaved=   7.
 NSaved= 7 IEnMin= 7 EnMin= -764.570665915438     IErMin= 7 ErrMin= 5.79D-08
 ErrMax= 5.79D-08 EMaxC= 1.00D-01 BMatC= 1.23D-13 BMatP= 5.17D-13
 IDIUse=1 WtCom= 1.00D+00 WtEn= 0.00D+00
 Coeff-Com: -0.186D-01-0.906D-02 0.650D-01-0.599D-02-0.226D+00 0.188D+00
 Coeff-Com:  0.101D+01
 Coeff:     -0.186D-01-0.906D-02 0.650D-01-0.599D-02-0.226D+00 0.188D+00
 Coeff:      0.101D+01
 Gap=     0.303 Goal=   None    Shift=    0.000
 RMSDP=1.08D-08 MaxDP=6.08D-07 DE=-9.55D-12 OVMax= 5.57D-07

 Cycle  17  Pass 1  IDiag  1:
 RMSU=  3.61D-09    CP:  1.00D+00  1.51D+00  1.96D+00  1.84D+00  1.44D+00
                    CP:  1.42D+00  1.32D+00
 E= -764.570665915427     Delta-E=        0.000000000011 Rises=F Damp=F
 DIIS: error= 2.17D-08 at cycle   8 NSaved=   8.
 NSaved= 8 IEnMin= 7 EnMin= -764.570665915438     IErMin= 8 ErrMin= 2.17D-08
 ErrMax= 2.17D-08 EMaxC= 1.00D-01 BMatC= 2.55D-14 BMatP= 1.23D-13
 IDIUse=1 WtCom= 1.00D+00 WtEn= 0.00D+00
 Coeff-Com: -0.120D-01-0.795D-02 0.358D-01 0.271D-01-0.926D-01-0.203D+00
 Coeff-Com:  0.170D+00 0.108D+01
 Coeff:     -0.120D-01-0.795D-02 0.358D-01 0.271D-01-0.926D-01-0.203D+00
 Coeff:      0.170D+00 0.108D+01
 Gap=     0.303 Goal=   None    Shift=    0.000
 RMSDP=6.63D-09 MaxDP=2.75D-07 DE= 1.14D-11 OVMax= 2.75D-07

 SCF Done:  E(RHF) =  -764.570665915     A.U. after   17 cycles
             Convg  =    0.6631D-08             -V/T =  2.0011
 KE= 7.636939382235D+02 PE=-4.520465943408D+03 EE= 1.621682957291D+03
 Leave Link  502 at Fri Dec  3 15:35:35 2021, MaxMem=  498073600 cpu:    2296.4
 (Enter /apps/software//g09/l801.exe)
 ExpMin= 3.60D-02 ExpMax= 4.56D+03 ExpMxC= 6.82D+02 IAcc=3 IRadAn=         5 AccDes= 0.00D+00
 HarFok:  IExCor=  205 AccDes= 0.00D+00 IRadAn=         5 IDoV=-2
 ScaDFX=  1.000000  1.000000  1.000000  1.000000
 Largest valence mixing into a core orbital is  1.48D-04
 Largest core mixing into a valence orbital is  4.74D-05
 Range of M.O.s used for correlation:    21   511
 NBasis=   524 NAE=    66 NBE=    66 NFC=    20 NFV=     0
 NROrb=    491 NOA=    46 NOB=    46 NVA=   445 NVB=   445

 **** Warning!!: The largest alpha MO coefficient is  0.13898229D+03

 Leave Link  801 at Fri Dec  3 15:35:35 2021, MaxMem=  498073600 cpu:       1.1
 (Enter /apps/software//g09/l906.exe)
 Frozen-core derivative calculation, NFC=  20 NFV=   0.
 FulOut=F Deriv=T AODrv=F NAtomX=    32
   MMem=           6  MDisk=          46 MDiskD=          46
  W3Min=    18346944 MinDsk=    22133408 NBas6D=         544
 NBas2D=      149056    NTT=      148240    LW2=     2040000
    MDV=   495065227 MDiskM=       12588 NBas2p=      126914
 Disk-based method using ON**2 memory for 46 occupieds at a time.
 Estimated scratch disk usage= 13133648578 words.
 IMap=   1   2   3   4   5   6   7   8   9  10  11  12  13  14  15  16  17  18  19  20
 IMap=  21  22  23  24  25  26  27  28  29  30  31  32  33  34  35  36  37  38  39  40
 IMap=  41  42  43  44  45  46  47  48  49  50  51  52  53  54  55  56  57  58  59  60
 IMap=  61  62  63  64  65  66
 Actual    scratch disk usage= 12663642818 words.
 JobTyp=1 Pass  1:  I=  21 to  66 NPSUse=  6 ParTrn=T ParDer=T DoDerP=T.
 Spin components of T(2) and E(2):
     alpha-alpha T2 =       0.1511532930D+00 E2=     -0.3763292623D+00
     alpha-beta  T2 =       0.7292343228D+00 E2=     -0.1971601876D+01
     beta-beta   T2 =       0.1511532930D+00 E2=     -0.3763292623D+00
 The integrals were generated   1 times.
 ANorm=    0.1425321335D+01
 E2 =    -0.2724260401D+01 EUMP2 =    -0.76729492631606D+03
 Leave Link  906 at Fri Dec  3 16:03:40 2021, MaxMem=  498073600 cpu:    9010.8
 (Enter /apps/software//g09/l1002.exe)
 Minotr:  Closed shell wavefunction.
          Computing MP2/KS-MP2 derivatives.
          Using Z-Vector for PSCF gradient.
          Skipping F1 and S1 gradient terms here.
          Frozen-core window.
          Direct CPHF calculation.
          Differentiating once with respect to electric field.
                with respect to dipole field.
          Electric field/nuclear overlap derivatives assumed to be zero.
          Using symmetry in CPHF.
          Requested convergence is 1.0D-10 RMS, and 1.0D-09 maximum.
          NewPWx=F KeepS1=T KeepF1=T KeepIn=T MapXYZ=F SortEE=F KeepMc=T.
          MDV=     498073340 using IRadAn=       0.
          Solving linear equations separately, MaxMat=       0.
          There are     1 degrees of freedom in the 1st order CPHF.  IDoFFX=0.
 Petite list used in FoFDir.
 MinBra= 0 MaxBra= 2 Meth= 1.
 IRaf=       0 NMat=   1 IRICut=       1 DoRegI=T DoRafI=F ISym2E= 1 JSym2E=1.
 LinEq1:  Iter=  0 NonCon=     1 RMS=2.25D-03 Max=6.41D-02
 AX will form     1 AO Fock derivatives at one time.
 LinEq1:  Iter=  1 NonCon=     1 RMS=4.66D-04 Max=1.44D-02
 LinEq1:  Iter=  2 NonCon=     1 RMS=1.80D-04 Max=1.22D-02
 LinEq1:  Iter=  3 NonCon=     1 RMS=9.14D-05 Max=6.45D-03
 LinEq1:  Iter=  4 NonCon=     1 RMS=3.60D-05 Max=1.23D-03
 LinEq1:  Iter=  5 NonCon=     1 RMS=1.07D-05 Max=5.16D-04
 LinEq1:  Iter=  6 NonCon=     1 RMS=4.53D-06 Max=2.70D-04
 LinEq1:  Iter=  7 NonCon=     1 RMS=2.20D-06 Max=1.57D-04
 LinEq1:  Iter=  8 NonCon=     1 RMS=8.87D-07 Max=4.71D-05
 LinEq1:  Iter=  9 NonCon=     1 RMS=3.07D-07 Max=1.31D-05
 LinEq1:  Iter= 10 NonCon=     1 RMS=7.80D-08 Max=3.89D-06
 LinEq1:  Iter= 11 NonCon=     1 RMS=2.32D-08 Max=6.89D-07
 LinEq1:  Iter= 12 NonCon=     1 RMS=1.15D-08 Max=6.62D-07
 LinEq1:  Iter= 13 NonCon=     1 RMS=3.61D-09 Max=1.01D-07
 LinEq1:  Iter= 14 NonCon=     1 RMS=8.07D-10 Max=1.86D-08
 LinEq1:  Iter= 15 NonCon=     1 RMS=2.75D-10 Max=8.74D-09
 LinEq1:  Iter= 16 NonCon=     1 RMS=5.94D-11 Max=2.75D-09
 LinEq1:  Iter= 17 NonCon=     0 RMS=1.76D-11 Max=6.87D-10
 Linear equations converged to 1.000D-10 1.000D-09 after    17 iterations.
 End of Minotr Frequency-dependent properties file   721 does not exist.
 End of Minotr Frequency-dependent properties file   722 does not exist.
 Leave Link 1002 at Fri Dec  3 16:11:35 2021, MaxMem=  498073600 cpu:    2846.1
 (Enter /apps/software//g09/l601.exe)
 Copying SCF densities to generalized density rwf, IOpCl= 0 IROHF=0.

 **********************************************************************

            Population analysis using the MP2 density.

 **********************************************************************

 Orbital symmetries:
       Occupied  (A') (A') (A') (A') (A') (A') (A') (A') (A') (A')
                 (A') (A') (A') (A') (A') (A') (A') (A') (A') (A')
                 (A') (A') (A') (A') (A') (A') (A') (A') (A') (A')
                 (A') (A') (A') (A') (A') (A') (A') (A') (A') (A')
                 (A') (A') (A') (A') (A') (A') (A') (A') (A') (A")
                 (A') (A') (A') (A') (A') (A") (A") (A') (A') (A")
                 (A") (A") (A") (A") (A") (A")
       Virtual   (A') (A') (A') (A') (A') (A") (A') (A') (A") (A')
                 (A') (A") (A") (A") (A') (A') (A') (A") (A") (A')
                 (A") (A') (A") (A") (A') (A") (A') (A') (A') (A')
                 (A") (A') (A') (A') (A') (A') (A") (A") (A') (A')
                 (A') (A") (A') (A') (A") (A') (A") (A') (A") (A')
                 (A") (A') (A") (A') (A') (A") (A') (A') (A') (A')
                 (A') (A") (A") (A") (A') (A') (A') (A') (A") (A')
                 (A') (A') (A') (A") (A") (A') (A') (A') (A') (A")
                 (A') (A') (A') (A") (A') (A') (A') (A') (A') (A')
                 (A') (A') (A') (A') (A') (A') (A') (A') (A') (A')
                 (A') (A') (A") (A') (A') (A') (A') (A') (A') (A')
                 (A') (A') (A') (A') (A') (A') (A') (A') (A') (A')
                 (A') (A") (A") (A") (A') (A') (A') (A") (A') (A")
                 (A') (A') (A") (A') (A') (A") (A') (A") (A') (A')
                 (A") (A") (A') (A') (A") (A') (A') (A') (A') (A")
                 (A') (A') (A") (A') (A") (A') (A") (A") (A") (A')
                 (A') (A") (A') (A") (A') (A') (A') (A') (A') (A')
                 (A') (A') (A') (A') (A') (A') (A') (A") (A') (A')
                 (A') (A') (A') (A') (A") (A') (A') (A') (A') (A')
                 (A') (A') (A') (A') (A") (A') (A') (A') (A') (A')
                 (A') (A") (A') (A") (A") (A") (A") (A') (A') (A")
                 (A") (A') (A") (A") (A') (A") (A') (A") (A') (A")
                 (A') (A") (A") (A') (A') (A') (A') (A') (A') (A')
                 (A') (A') (A") (A') (A') (A") (A") (A') (A') (A')
                 (A") (A') (A') (A') (A") (A') (A') (A") (A") (A")
                 (A') (A') (A") (A') (A") (A') (A') (A') (A') (A')
                 (A') (A') (A') (A") (A") (A') (A") (A") (A") (A')
                 (A") (A') (A') (A') (A') (A") (A") (A') (A") (A')
                 (A") (A') (A') (A') (A") (A') (A') (A") (A") (A')
                 (A') (A') (A') (A") (A') (A") (A") (A') (A') (A')
                 (A') (A') (A') (A') (A") (A") (A') (A") (A') (A")
                 (A') (A') (A') (A") (A") (A') (A") (A') (A') (A")
                 (A') (A') (A') (A') (A') (A") (A") (A') (A') (A')
                 (A') (A') (A') (A') (A') (A') (A') (A') (A') (A")
                 (A') (A') (A') (A') (A') (A") (A') (A") (A') (A')
                 (A') (A') (A") (A') (A') (A') (A") (A') (A") (A')
                 (A') (A') (A") (A") (A") (A') (A") (A') (A") (A")
                 (A") (A") (A') (A") (A') (A") (A") (A") (A") (A")
                 (A') (A') (A') (A') (A') (A') (A') (A') (A') (A')
                 (A') (A') (A') (A') (A') (A') (A') (A') (A') (A')
                 (A') (A') (A') (A') (A') (A') (A') (A') (A') (A')
                 (A') (A') (A') (A') (A') (A') (A') (A') (A') (A')
                 (A') (A') (A') (A') (A') (A') (A') (A') (A') (A')
                 (A') (A') (A') (A') (A') (A') (A') (A') (A') (A')
                 (A') (A') (A') (A') (A')
 The electronic state is 1-A'.
 Alpha  occ. eigenvalues --  -11.25621 -11.25578 -11.25535 -11.25468 -11.25286
 Alpha  occ. eigenvalues --  -11.25206 -11.25098 -11.25085 -11.24308 -11.24171
 Alpha  occ. eigenvalues --  -11.24171 -11.24167 -11.24157 -11.24129 -11.24042
 Alpha  occ. eigenvalues --  -11.24042 -11.24037 -11.23981 -11.23981 -11.23959
 Alpha  occ. eigenvalues --   -1.20662  -1.16218  -1.15292  -1.10295  -1.07596
 Alpha  occ. eigenvalues --   -1.06048  -1.01829  -1.01411  -0.98836  -0.97411
 Alpha  occ. eigenvalues --   -0.86791  -0.86352  -0.86189  -0.85376  -0.80029
 Alpha  occ. eigenvalues --   -0.76740  -0.74372  -0.73326  -0.69759  -0.68265
 Alpha  occ. eigenvalues --   -0.66067  -0.65393  -0.64593  -0.62357  -0.60995
 Alpha  occ. eigenvalues --   -0.59485  -0.59456  -0.58916  -0.57646  -0.56667
 Alpha  occ. eigenvalues --   -0.55719  -0.53748  -0.52233  -0.52044  -0.51162
 Alpha  occ. eigenvalues --   -0.51131  -0.49955  -0.47047  -0.46749  -0.43632
 Alpha  occ. eigenvalues --   -0.39831  -0.38567  -0.33606  -0.32974  -0.28953
 Alpha  occ. eigenvalues --   -0.26558
 Alpha virt. eigenvalues --    0.03709   0.04157   0.04193   0.05129   0.05229
 Alpha virt. eigenvalues --    0.05396   0.06593   0.06757   0.07314   0.08555
 Alpha virt. eigenvalues --    0.08609   0.08884   0.10273   0.10885   0.11067
 Alpha virt. eigenvalues --    0.11162   0.12029   0.12649   0.12837   0.13311
 Alpha virt. eigenvalues --    0.14143   0.14148   0.14927   0.14936   0.15291
 Alpha virt. eigenvalues --    0.16805   0.16809   0.16905   0.17261   0.17358
 Alpha virt. eigenvalues --    0.17443   0.17660   0.17834   0.18754   0.19099
 Alpha virt. eigenvalues --    0.19301   0.19464   0.19484   0.19746   0.20219
 Alpha virt. eigenvalues --    0.21081   0.21100   0.21271   0.21371   0.22262
 Alpha virt. eigenvalues --    0.22327   0.23198   0.23359   0.23716   0.23786
 Alpha virt. eigenvalues --    0.24084   0.24891   0.25145   0.25603   0.25922
 Alpha virt. eigenvalues --    0.26104   0.26551   0.27302   0.27411   0.28201
 Alpha virt. eigenvalues --    0.28296   0.28710   0.29051   0.29259   0.29641
 Alpha virt. eigenvalues --    0.30591   0.31521   0.32087   0.32742   0.33096
 Alpha virt. eigenvalues --    0.33353   0.34440   0.34659   0.34834   0.35654
 Alpha virt. eigenvalues --    0.36107   0.36802   0.36884   0.37076   0.37239
 Alpha virt. eigenvalues --    0.37689   0.38385   0.39153   0.39881   0.39977
 Alpha virt. eigenvalues --    0.40269   0.40716   0.41168   0.41413   0.42207
 Alpha virt. eigenvalues --    0.42700   0.42926   0.42995   0.44094   0.44207
 Alpha virt. eigenvalues --    0.45060   0.45294   0.45745   0.46117   0.46856
 Alpha virt. eigenvalues --    0.47434   0.48090   0.48108   0.48916   0.49330
 Alpha virt. eigenvalues --    0.50691   0.51101   0.51916   0.52592   0.52914
 Alpha virt. eigenvalues --    0.54978   0.55145   0.57555   0.59148   0.60757
 Alpha virt. eigenvalues --    0.64104   0.65970   0.67659   0.67854   0.69446
 Alpha virt. eigenvalues --    0.70036   0.70352   0.71909   0.72580   0.72746
 Alpha virt. eigenvalues --    0.72979   0.74837   0.74867   0.75330   0.75391
 Alpha virt. eigenvalues --    0.75473   0.75836   0.76039   0.76952   0.78488
 Alpha virt. eigenvalues --    0.78532   0.79410   0.79882   0.80020   0.80272
 Alpha virt. eigenvalues --    0.80284   0.80454   0.81575   0.82240   0.82348
 Alpha virt. eigenvalues --    0.83646   0.84251   0.84343   0.84896   0.85675
 Alpha virt. eigenvalues --    0.86634   0.86637   0.86645   0.87198   0.87584
 Alpha virt. eigenvalues --    0.89419   0.89578   0.91098   0.91305   0.93323
 Alpha virt. eigenvalues --    0.94421   0.94595   0.95276   0.96926   0.97637
 Alpha virt. eigenvalues --    0.98033   0.98867   0.99322   1.00236   1.01025
 Alpha virt. eigenvalues --    1.01979   1.02629   1.03068   1.03845   1.04541
 Alpha virt. eigenvalues --    1.04939   1.05489   1.06019   1.06056   1.07839
 Alpha virt. eigenvalues --    1.09891   1.10826   1.12697   1.13368   1.13664
 Alpha virt. eigenvalues --    1.13826   1.13959   1.15205   1.15660   1.15973
 Alpha virt. eigenvalues --    1.16353   1.17967   1.18314   1.18343   1.18383
 Alpha virt. eigenvalues --    1.18686   1.19162   1.20880   1.21766   1.21956
 Alpha virt. eigenvalues --    1.23005   1.23179   1.23876   1.24705   1.24709
 Alpha virt. eigenvalues --    1.25535   1.27927   1.28224   1.29740   1.30005
 Alpha virt. eigenvalues --    1.31211   1.31665   1.31860   1.35183   1.35644
 Alpha virt. eigenvalues --    1.36060   1.36415   1.36427   1.37288   1.37748
 Alpha virt. eigenvalues --    1.38666   1.41549   1.41584   1.43044   1.44827
 Alpha virt. eigenvalues --    1.48521   1.50346   1.56566   1.58715   1.58836
 Alpha virt. eigenvalues --    1.63191   1.64620   1.70262   1.72006   1.72423
 Alpha virt. eigenvalues --    1.72700   1.73412   1.74264   1.74919   1.75278
 Alpha virt. eigenvalues --    1.76708   1.76824   1.78106   1.79150   1.79695
 Alpha virt. eigenvalues --    1.81033   1.81814   1.82562   1.83099   1.83969
 Alpha virt. eigenvalues --    1.84017   1.84377   1.85308   1.88937   1.89108
 Alpha virt. eigenvalues --    1.90086   1.90730   1.91035   1.93654   1.95478
 Alpha virt. eigenvalues --    1.96253   1.98809   1.99408   1.99654   2.00724
 Alpha virt. eigenvalues --    2.01251   2.01974   2.02629   2.03041   2.03377
 Alpha virt. eigenvalues --    2.04133   2.06840   2.07828   2.09630   2.10989
 Alpha virt. eigenvalues --    2.12087   2.14869   2.17524   2.17791   2.18220
 Alpha virt. eigenvalues --    2.19296   2.19548   2.20482   2.21450   2.21595
 Alpha virt. eigenvalues --    2.22241   2.22675   2.23194   2.24228   2.24332
 Alpha virt. eigenvalues --    2.25997   2.26075   2.27579   2.27863   2.29073
 Alpha virt. eigenvalues --    2.30300   2.30367   2.30822   2.33190   2.34316
 Alpha virt. eigenvalues --    2.34401   2.34844   2.38932   2.39245   2.40105
 Alpha virt. eigenvalues --    2.40808   2.45139   2.45931   2.46939   2.47887
 Alpha virt. eigenvalues --    2.48171   2.53161   2.56588   2.57034   2.60985
 Alpha virt. eigenvalues --    2.61300   2.62696   2.63111   2.64857   2.65088
 Alpha virt. eigenvalues --    2.66006   2.67449   2.77508   2.78794   2.78934
 Alpha virt. eigenvalues --    2.79587   2.81169   2.84802   2.85302   2.85416
 Alpha virt. eigenvalues --    2.86970   2.88604   2.90491   2.92254   2.93982
 Alpha virt. eigenvalues --    2.95310   3.01307   3.02264   3.02685   3.02901
 Alpha virt. eigenvalues --    3.03618   3.04720   3.05019   3.05093   3.06173
 Alpha virt. eigenvalues --    3.06351   3.06858   3.07325   3.07887   3.08486
 Alpha virt. eigenvalues --    3.09489   3.11004   3.11659   3.11962   3.13354
 Alpha virt. eigenvalues --    3.13602   3.13722   3.15544   3.17465   3.17945
 Alpha virt. eigenvalues --    3.22079   3.22355   3.23073   3.23258   3.24594
 Alpha virt. eigenvalues --    3.24744   3.25273   3.27430   3.29035   3.31600
 Alpha virt. eigenvalues --    3.32193   3.33928   3.36302   3.37177   3.40826
 Alpha virt. eigenvalues --    3.44836   3.45919   3.49744   3.50434   3.56380
 Alpha virt. eigenvalues --    3.56558   3.60357   3.64829   3.68026   3.70327
 Alpha virt. eigenvalues --    3.71519   3.73501   3.77780   3.79601   3.81243
 Alpha virt. eigenvalues --    3.82549   3.84122   3.85101   3.86873   3.88512
 Alpha virt. eigenvalues --    3.92342   3.93507   3.96506   3.98369   3.98999
 Alpha virt. eigenvalues --    4.00076   4.04583   4.06135   4.07813   4.08093
 Alpha virt. eigenvalues --    4.18803   4.24906   4.26809   4.35625   4.46244
 Alpha virt. eigenvalues --    4.48315   4.48481   4.50514   4.51915   4.55473
 Alpha virt. eigenvalues --    4.56911   4.66490   4.73497   4.92239   4.96427
 Alpha virt. eigenvalues --    5.26043   5.27338   5.27801   5.32003   5.40279
 Alpha virt. eigenvalues --   24.59232  24.85821  24.90110  25.00995  25.07766
 Alpha virt. eigenvalues --   25.11064  25.11377  25.12090  25.12883  25.15366
 Alpha virt. eigenvalues --   25.17762  25.19868  25.21340  25.23491  25.25054
 Alpha virt. eigenvalues --   25.27650  25.34971  25.35118  25.36343  25.38229
          Condensed to atoms (all electrons):
              1          2          3          4          5          6
     1  C   17.380688  -1.067944  -4.395924   2.264924   1.143268   0.020105
     2  C   -1.067944  16.859090  -4.500601   0.521605   4.087119  -6.535134
     3  C   -4.395924  -4.500601  19.662968  -0.595035  -4.007998   4.709558
     4  C    2.264924   0.521605  -0.595035  13.379486   0.623790  -3.137178
     5  C    1.143268   4.087119  -4.007998   0.623790  25.288282  -9.327938
     6  C    0.020105  -6.535134   4.709558  -3.137178  -9.327938  21.828256
     7  C   -0.852824  -0.594605  -1.722827  -0.447586  -3.292154  -0.439823
     8  C   -0.473875   0.142907  -1.710701   0.290887  -4.726721  -1.721488
     9  C    0.826158   0.477255  -0.001506  -1.302010   4.152797  -1.189581
    10  C   -1.537190  -0.165873   2.440472   0.556515  -1.302000  -0.725391
    11  C    0.935748  -0.523819   1.776576   2.440455  -0.001533   0.173304
    12  C   -1.633351  -2.241700   1.527821  -1.036009  -2.971515   1.792517
    13  C   -3.000509  -2.869316   2.537187   0.687582  -2.603179   0.323841
    14  C    0.227936   0.549298  -0.523811  -0.165905   0.477247  -0.014041
    15  C    0.228580   0.227938   0.935752  -1.537199   0.826147  -0.361164
    16  C   -0.361165  -0.014050   0.173284  -0.725384  -1.189581  -0.146826
    17  C   -2.304315   2.913331  -5.225435  -3.754635  -0.867348   0.086304
    18  C   -0.449456  -0.409132  -1.076163  -0.648380  -0.212438  -0.362461
    19  C   -0.156848  -0.825497  -0.886077   0.430526  -0.234578   0.131685
    20  C   -0.324862   0.115905  -3.793394  -1.786593  -0.213872   0.824444
    21  H    0.488060  -0.108110  -0.030655   0.024813  -0.045783  -0.039502
    22  H   -0.351088   0.712056  -0.045805  -0.016891   0.096028  -0.173048
    23  H   -0.169743  -0.074815   0.074934  -0.025483  -0.130473   0.552602
    24  H    0.016371   0.040952  -0.016918   0.035587  -0.017605  -0.103899
    25  H    0.008175   0.002115  -0.025933   0.008339  -0.080444  -0.008663
    26  H   -0.003918  -0.011501  -0.054515   0.095544  -0.024542  -0.006082
    27  H    0.001868   0.000917   0.011431  -0.025442   0.015904  -0.000387
    28  H   -0.006313  -0.000371   0.004203   0.033323  -0.005100  -0.001115
    29  H   -0.054070   0.073988  -0.228663  -0.067605  -0.012591   0.053256
    30  H   -0.002564  -0.001951   0.037619  -0.002615   0.001202  -0.003068
    31  H   -0.002969  -0.015132  -0.001686   0.006890  -0.001783  -0.000495
    32  H   -0.002530   0.026180  -0.030740  -0.074703   0.012166   0.008241
              7          8          9         10         11         12
     1  C   -0.852824  -0.473875   0.826158  -1.537190   0.935748  -1.633351
     2  C   -0.594605   0.142907   0.477255  -0.165873  -0.523819  -2.241700
     3  C   -1.722827  -1.710701  -0.001506   2.440472   1.776576   1.527821
     4  C   -0.447586   0.290887  -1.302010   0.556515   2.440455  -1.036009
     5  C   -3.292154  -4.726721   4.152797  -1.302000  -0.001533  -2.971515
     6  C   -0.439823  -1.721488  -1.189581  -0.725391   0.173304   1.792517
     7  C   15.960450   5.173402  -4.726812   0.290879  -1.710707   0.462131
     8  C    5.173402  15.960400  -3.292188  -0.447611  -1.722820   0.108690
     9  C   -4.726812  -3.292188  25.288422   0.623810  -4.007994  -2.603207
    10  C    0.290879  -0.447611   0.623810  13.379486  -0.594983   0.687555
    11  C   -1.710707  -1.722820  -4.007994  -0.594983  19.662915   2.537205
    12  C    0.462131   0.108690  -2.603207   0.687555   2.537205  20.666666
    13  C    0.108685   0.462124  -2.971531  -1.036031   1.527839   1.856233
    14  C    0.142882  -0.594646   4.087117   0.521573  -4.500553  -2.869330
    15  C   -0.473872  -0.852804   1.143255   2.264897  -4.395884  -3.000522
    16  C   -1.721474  -0.439809  -9.327964  -3.137159   4.709512   0.323839
    17  C   -0.327398  -0.002998  -0.213885  -1.786598  -3.793397  -2.276458
    18  C   -0.045076   0.029252  -0.234586   0.430513  -0.886079   4.140027
    19  C    0.029253  -0.045076  -0.212431  -0.648376  -1.076174  -4.762178
    20  C   -0.003001  -0.327400  -0.867323  -3.754626  -5.225463  -5.425023
    21  H    0.019706   0.005192   0.015904  -0.025442   0.011431  -0.013607
    22  H   -0.052887  -0.000001  -0.024542   0.095543  -0.054515   0.036873
    23  H    0.020577  -0.009400  -0.005100   0.033322   0.004203   0.015618
    24  H    0.436085  -0.018435  -0.080443   0.008340  -0.025933  -0.006353
    25  H   -0.018432   0.436087  -0.017607   0.035586  -0.016918  -0.003466
    26  H   -0.000001  -0.052889   0.096026  -0.016893  -0.045802  -0.106239
    27  H    0.005192   0.019707  -0.045783   0.024813  -0.030657  -0.008273
    28  H   -0.009401   0.020575  -0.130469  -0.025482   0.074934   0.014750
    29  H    0.012083  -0.002105   0.012166  -0.074703  -0.030741  -0.157669
    30  H   -0.000149   0.000781  -0.001783   0.006890  -0.001686   0.081876
    31  H    0.000781  -0.000149   0.001202  -0.002615   0.037619   0.003565
    32  H   -0.002105   0.012083  -0.012590  -0.067605  -0.228665  -0.153957
             13         14         15         16         17         18
     1  C   -3.000509   0.227936   0.228580  -0.361165  -2.304315  -0.449456
     2  C   -2.869316   0.549298   0.227938  -0.014050   2.913331  -0.409132
     3  C    2.537187  -0.523811   0.935752   0.173284  -5.225435  -1.076163
     4  C    0.687582  -0.165905  -1.537199  -0.725384  -3.754635  -0.648380
     5  C   -2.603179   0.477247   0.826147  -1.189581  -0.867348  -0.212438
     6  C    0.323841  -0.014041  -0.361164  -0.146826   0.086304  -0.362461
     7  C    0.108685   0.142882  -0.473872  -1.721474  -0.327398  -0.045076
     8  C    0.462124  -0.594646  -0.852804  -0.439809  -0.002998   0.029252
     9  C   -2.971531   4.087117   1.143255  -9.327964  -0.213885  -0.234586
    10  C   -1.036031   0.521573   2.264897  -3.137159  -1.786598   0.430513
    11  C    1.527839  -4.500553  -4.395884   4.709512  -3.793397  -0.886079
    12  C    1.856233  -2.869330  -3.000522   0.323839  -2.276458   4.140027
    13  C   20.666599  -2.241667  -1.633341   1.792520  -5.425008  -4.762155
    14  C   -2.241667  16.859004  -1.068000  -6.535038   0.115927  -0.825502
    15  C   -1.633341  -1.068000  17.380671   0.020138  -0.324861  -0.156847
    16  C    1.792520  -6.535038   0.020138  21.828185   0.824445   0.131687
    17  C   -5.425008   0.115927  -0.324861   0.824445  23.884324  -0.839098
    18  C   -4.762155  -0.825502  -0.156847   0.131687  -0.839098  16.080002
    19  C    4.139998  -0.409115  -0.449450  -0.362462  -2.810621  -0.561226
    20  C   -2.276477   2.913402  -2.304290   0.086293   8.157164  -2.810631
    21  H   -0.008272   0.000917   0.001868  -0.000387  -0.023744  -0.002656
    22  H   -0.106239  -0.011501  -0.003918  -0.006082   0.163884   0.086707
    23  H    0.014750  -0.000371  -0.006312  -0.001115  -0.005547  -0.003072
    24  H   -0.003466   0.002115   0.008175  -0.008662   0.001631   0.001008
    25  H   -0.006353   0.040951   0.016371  -0.103898  -0.004564   0.000090
    26  H    0.036873   0.712057  -0.351095  -0.173046  -0.059868  -0.020177
    27  H   -0.013607  -0.108113   0.488064  -0.039502  -0.003139  -0.000855
    28  H    0.015618  -0.074812  -0.169745   0.552598   0.004269   0.000308
    29  H   -0.153956   0.026180  -0.002530   0.008241   0.853401  -0.332701
    30  H    0.003564  -0.015132  -0.002969  -0.000495  -0.084935   0.484141
    31  H    0.081875  -0.001952  -0.002564  -0.003068  -0.093908  -0.128709
    32  H   -0.157668   0.073992  -0.054067   0.053255   0.338214   0.005388
             19         20         21         22         23         24
     1  C   -0.156848  -0.324862   0.488060  -0.351088  -0.169743   0.016371
     2  C   -0.825497   0.115905  -0.108110   0.712056  -0.074815   0.040952
     3  C   -0.886077  -3.793394  -0.030655  -0.045805   0.074934  -0.016918
     4  C    0.430526  -1.786593   0.024813  -0.016891  -0.025483   0.035587
     5  C   -0.234578  -0.213872  -0.045783   0.096028  -0.130473  -0.017605
     6  C    0.131685   0.824444  -0.039502  -0.173048   0.552602  -0.103899
     7  C    0.029253  -0.003001   0.019706  -0.052887   0.020577   0.436085
     8  C   -0.045076  -0.327400   0.005192  -0.000001  -0.009400  -0.018435
     9  C   -0.212431  -0.867323   0.015904  -0.024542  -0.005100  -0.080443
    10  C   -0.648376  -3.754626  -0.025442   0.095543   0.033322   0.008340
    11  C   -1.076174  -5.225463   0.011431  -0.054515   0.004203  -0.025933
    12  C   -4.762178  -5.425023  -0.013607   0.036873   0.015618  -0.006353
    13  C    4.139998  -2.276477  -0.008272  -0.106239   0.014750  -0.003466
    14  C   -0.409115   2.913402   0.000917  -0.011501  -0.000371   0.002115
    15  C   -0.449450  -2.304290   0.001868  -0.003918  -0.006312   0.008175
    16  C   -0.362462   0.086293  -0.000387  -0.006082  -0.001115  -0.008662
    17  C   -2.810621   8.157164  -0.023744   0.163884  -0.005547   0.001631
    18  C   -0.561226  -2.810631  -0.002656   0.086707  -0.003072   0.001008
    19  C   16.079977  -0.839074  -0.000855  -0.020177   0.000308   0.000090
    20  C   -0.839074  23.884262  -0.003139  -0.059869   0.004269  -0.004564
    21  H   -0.000855  -0.003139   0.590510  -0.054825  -0.027459   0.002266
    22  H   -0.020177  -0.059869  -0.054825   0.778754   0.008811   0.000392
    23  H    0.000308   0.004269  -0.027459   0.008811   0.604813  -0.007351
    24  H    0.000090  -0.004564   0.002266   0.000392  -0.007351   0.605253
    25  H    0.001008   0.001631  -0.000433   0.000283   0.002483  -0.023062
    26  H    0.086706   0.163887  -0.000051   0.000617   0.000067   0.000283
    27  H   -0.002656  -0.023745   0.000010  -0.000051   0.000002  -0.000433
    28  H   -0.003072  -0.005547   0.000002   0.000067   0.000197   0.002483
    29  H    0.005390   0.338216   0.006367  -0.072962  -0.001291  -0.000050
    30  H   -0.128710  -0.093908  -0.000142   0.007400   0.000057  -0.000007
    31  H    0.484140  -0.084935   0.000028  -0.000788  -0.000014   0.000011
    32  H   -0.332698   0.853398  -0.000045  -0.000654   0.000078  -0.000136
             25         26         27         28         29         30
     1  C    0.008175  -0.003918   0.001868  -0.006313  -0.054070  -0.002564
     2  C    0.002115  -0.011501   0.000917  -0.000371   0.073988  -0.001951
     3  C   -0.025933  -0.054515   0.011431   0.004203  -0.228663   0.037619
     4  C    0.008339   0.095544  -0.025442   0.033323  -0.067605  -0.002615
     5  C   -0.080444  -0.024542   0.015904  -0.005100  -0.012591   0.001202
     6  C   -0.008663  -0.006082  -0.000387  -0.001115   0.053256  -0.003068
     7  C   -0.018432  -0.000001   0.005192  -0.009401   0.012083  -0.000149
     8  C    0.436087  -0.052889   0.019707   0.020575  -0.002105   0.000781
     9  C   -0.017607   0.096026  -0.045783  -0.130469   0.012166  -0.001783
    10  C    0.035586  -0.016893   0.024813  -0.025482  -0.074703   0.006890
    11  C   -0.016918  -0.045802  -0.030657   0.074934  -0.030741  -0.001686
    12  C   -0.003466  -0.106239  -0.008273   0.014750  -0.157669   0.081876
    13  C   -0.006353   0.036873  -0.013607   0.015618  -0.153956   0.003564
    14  C    0.040951   0.712057  -0.108113  -0.074812   0.026180  -0.015132
    15  C    0.016371  -0.351095   0.488064  -0.169745  -0.002530  -0.002969
    16  C   -0.103898  -0.173046  -0.039502   0.552598   0.008241  -0.000495
    17  C   -0.004564  -0.059868  -0.003139   0.004269   0.853401  -0.084935
    18  C    0.000090  -0.020177  -0.000855   0.000308  -0.332701   0.484141
    19  C    0.001008   0.086706  -0.002656  -0.003072   0.005390  -0.128710
    20  C    0.001631   0.163887  -0.023745  -0.005547   0.338216  -0.093908
    21  H   -0.000433  -0.000051   0.000010   0.000002   0.006367  -0.000142
    22  H    0.000283   0.000617  -0.000051   0.000067  -0.072962   0.007400
    23  H    0.002483   0.000067   0.000002   0.000197  -0.001291   0.000057
    24  H   -0.023062   0.000283  -0.000433   0.002483  -0.000050  -0.000007
    25  H    0.605253   0.000392   0.002266  -0.007351  -0.000136   0.000011
    26  H    0.000392   0.778755  -0.054825   0.008811  -0.000654  -0.000788
    27  H    0.002266  -0.054825   0.590510  -0.027459  -0.000045   0.000028
    28  H   -0.007351   0.008811  -0.027459   0.604814   0.000078  -0.000014
    29  H   -0.000136  -0.000654  -0.000045   0.000078   0.752366  -0.044341
    30  H    0.000011  -0.000788   0.000028  -0.000014  -0.044341   0.582610
    31  H   -0.000007   0.007400  -0.000142   0.000057   0.001696  -0.021682
    32  H   -0.000050  -0.072962   0.006367  -0.001291   0.009144   0.001696
             31         32
     1  C   -0.002969  -0.002530
     2  C   -0.015132   0.026180
     3  C   -0.001686  -0.030740
     4  C    0.006890  -0.074703
     5  C   -0.001783   0.012166
     6  C   -0.000495   0.008241
     7  C    0.000781  -0.002105
     8  C   -0.000149   0.012083
     9  C    0.001202  -0.012590
    10  C   -0.002615  -0.067605
    11  C    0.037619  -0.228665
    12  C    0.003565  -0.153957
    13  C    0.081875  -0.157668
    14  C   -0.001952   0.073992
    15  C   -0.002564  -0.054067
    16  C   -0.003068   0.053255
    17  C   -0.093908   0.338214
    18  C   -0.128709   0.005388
    19  C    0.484140  -0.332698
    20  C   -0.084935   0.853398
    21  H    0.000028  -0.000045
    22  H   -0.000788  -0.000654
    23  H   -0.000014   0.000078
    24  H    0.000011  -0.000136
    25  H   -0.000007  -0.000050
    26  H    0.007400  -0.072962
    27  H   -0.000142   0.006367
    28  H    0.000057  -0.001291
    29  H    0.001696   0.009144
    30  H   -0.021682   0.001696
    31  H    0.582609  -0.044340
    32  H   -0.044340   0.752363
 Mulliken atomic charges:
              1
     1  C   -0.390422
     2  C   -0.791105
     3  C    0.982583
     4  C   -0.051610
     5  C    0.545225
     6  C   -0.206829
     7  C   -0.220972
     8  C   -0.220972
     9  C    0.545223
    10  C   -0.051616
    11  C    0.982583
    12  C    1.013492
    13  C    1.013490
    14  C   -0.791111
    15  C   -0.390420
    16  C   -0.206828
    17  C   -1.115132
    18  C   -0.621726
    19  C   -0.621731
    20  C   -1.115132
    21  H    0.218035
    22  H    0.068431
    23  H    0.130456
    24  H    0.156276
    25  H    0.156277
    26  H    0.068431
    27  H    0.218036
    28  H    0.130456
    29  H    0.084241
    30  H    0.199065
    31  H    0.199065
    32  H    0.084241
 Sum of Mulliken atomic charges =   0.00000
 Mulliken charges with hydrogens summed into heavy atoms:
              1
     1  C   -0.172387
     2  C   -0.722674
     3  C    0.982583
     4  C   -0.051610
     5  C    0.545225
     6  C   -0.076373
     7  C   -0.064696
     8  C   -0.064695
     9  C    0.545223
    10  C   -0.051616
    11  C    0.982583
    12  C    1.013492
    13  C    1.013490
    14  C   -0.722680
    15  C   -0.172385
    16  C   -0.076372
    17  C   -1.030891
    18  C   -0.422661
    19  C   -0.422666
    20  C   -1.030891
 Sum of Mulliken charges with hydrogens summed into heavy atoms =   0.00000
 Electronic spatial extent (au):  <R**2>=           4750.7228
 Charge=              0.0000 electrons
 Dipole moment (field-independent basis, Debye):
    X=              0.0722    Y=              0.0000    Z=              0.0000  Tot=              0.0722
 Quadrupole moment (field-independent basis, Debye-Ang):
   XX=           -101.5836   YY=           -101.7481   ZZ=           -126.1640
   XY=              0.0000   XZ=              0.0000   YZ=              0.0000
 Traceless Quadrupole moment (field-independent basis, Debye-Ang):
   XX=              8.2483   YY=              8.0838   ZZ=            -16.3321
   XY=              0.0000   XZ=              0.0000   YZ=              0.0000
 Octapole moment (field-independent basis, Debye-Ang**2):
  XXX=              3.6837  YYY=              0.0001  ZZZ=              0.0000  XYY=              0.0821
  XXY=             -0.0002  XXZ=              0.0000  XZZ=             -0.3177  YZZ=              0.0000
  YYZ=              0.0000  XYZ=              0.0000
 Hexadecapole moment (field-independent basis, Debye-Ang**3):
 XXXX=          -3421.7531 YYYY=          -2624.7218 ZZZZ=           -154.0054 XXXY=              0.0007
 XXXZ=              0.0000 YYYX=              0.0000 YYYZ=              0.0000 ZZZX=              0.0000
 ZZZY=              0.0000 XXYY=          -1005.1071 XXZZ=           -737.7076 YYZZ=           -571.0745
 XXYZ=              0.0000 YYXZ=              0.0000 ZZXY=              0.0000
 N-N= 1.370518381978D+03 E-N=-4.523227040795D+03  KE= 7.670251322416D+02
 Symmetry A'   KE= 7.454155570956D+02
 Symmetry A"   KE= 2.160957514602D+01
 No NMR shielding tensors so no spin-rotation constants.
 Leave Link  601 at Fri Dec  3 16:11:36 2021, MaxMem=  498073600 cpu:       3.5
 (Enter /apps/software//g09/l9999.exe)
 1\1\GINC-DLT21\SP\RMP2-FC\6-311++G(d,p)\C20H12\ITAMAR\03-Dec-2021\0\\#
 P MP2/6-311++G** DENSITY=MP2\\Benzo-pyrene\\0,1\C,0,-0.918645,-3.52406
 7,0.\C,0,0.297569,-2.843503,0.\C,0,0.356047,-1.444797,0.\C,0,-0.867842
 ,-0.717353,0.\C,0,-2.110651,-1.420619,0.\C,0,-2.113133,-2.823732,0.\C,
 0,-3.337736,-0.678098,0.\C,0,-3.337735,0.678096,0.\C,0,-2.110654,1.420
 62,0.\C,0,-0.867842,0.717353,0.\C,0,0.356046,1.444797,0.\C,0,1.624608,
 0.709685,0.\C,0,1.624606,-0.709685,0.\C,0,0.297566,2.843503,0.\C,0,-0.
 918646,3.524069,0.\C,0,-2.113134,2.823731,0.\C,0,2.864569,-1.382586,0.
 \C,0,4.065085,-0.699619,0.\C,0,4.065085,0.69962,0.\C,0,2.864569,1.3825
 87,0.\H,0,-0.923552,-4.608188,0.\H,0,1.207566,-3.427479,0.\H,0,-3.0609
 41,-3.351185,0.\H,0,-4.272087,-1.229433,0.\H,0,-4.27209,1.229426,0.\H,
 0,1.207563,3.42748,0.\H,0,-0.923555,4.608189,0.\H,0,-3.060943,3.351182
 ,0.\H,0,2.889844,-2.463617,0.\H,0,4.999975,-1.248289,0.\H,0,4.999977,1
 .248286,0.\H,0,2.889844,2.463618,0.\\Version=EM64L-G09RevA.02\State=1-
 A'\HF=-764.5706659\MP2=-767.2949263\RMSD=6.631e-09\Dipole=0.0284125,-0
 .0000017,0.\Quadrupole=6.1324156,6.0100911,-12.1425066,0.0000145,0.,0.
 \PG=CS [SG(C20H12)]\\@


 I think that all right-thinking people in this
 country are sick and tired of being told that
 ordinary, decent people are fed up in this country
 with being sick and tired.  I'm certainly not!
 But I'm sick and tired of being told that I am!
                               -- Monty Python
 Job cpu time:  0 days  3 hours 56 minutes  8.1 seconds.
 File lengths (MBytes):  RWF=  96771 Int=      0 D2E=      0 Chk=     18 Scr=      1
 Normal termination of Gaussian 09 at Fri Dec  3 16:11:40 2021.
