Chair-20                                                                
SP        RMP2-FC                                                     6-311++G(d,p)       
Number of atoms                            I               12
Info1-9                                    I   N=           9
          25          21           0           0           0         110
           1           2           1
Charge                                     I                0
Multiplicity                               I                1
Number of electrons                        I               42
Number of alpha electrons                  I               21
Number of beta electrons                   I               21
Number of basis functions                  I              174
Number of independent functions            I              174
Number of point charges in /Mol/           I                0
Number of translation vectors              I                0
Atomic numbers                             I   N=          12
           6           6           6           6           6           6
           1           1           1           1           1           1
Nuclear charges                            R   N=          12
  6.00000000E+00  6.00000000E+00  6.00000000E+00  6.00000000E+00  6.00000000E+00
  6.00000000E+00  1.00000000E+00  1.00000000E+00  1.00000000E+00  1.00000000E+00
  1.00000000E+00  1.00000000E+00
Current cartesian coordinates              R   N=          36
  1.52592339E-01  2.59782055E+00 -1.20178029E-31 -1.52592339E-01  1.31454679E+00
  2.28993422E+00  1.52592339E-01 -1.31454679E+00  2.28993422E+00 -1.52592339E-01
 -2.59782055E+00  5.23852945E-32  1.52592339E-01 -1.31454679E+00 -2.28993422E+00
 -1.52592339E-01  1.31454679E+00 -2.28993422E+00  1.29027932E-01  4.65031458E+00
 -2.89659864E-31 -1.20904547E-01  2.35732618E+00  4.05512740E+00  1.20904547E-01
 -2.35732618E+00  4.05512740E+00 -1.29027932E-01 -4.65031458E+00  5.70075264E-32
  1.20904547E-01 -2.35732618E+00 -4.05512740E+00 -1.20904547E-01  2.35732618E+00
 -4.05512740E+00
Force Field                                I                0
Int Atom Types                             I   N=          12
           0           0           0           0           0           0
           0           0           0           0           0           0
MM charges                                 R   N=          12
  0.00000000E+00  0.00000000E+00  0.00000000E+00  0.00000000E+00  0.00000000E+00
  0.00000000E+00  0.00000000E+00  0.00000000E+00  0.00000000E+00  0.00000000E+00
  0.00000000E+00  0.00000000E+00
Integer atomic weights                     I   N=          12
          12          12          12          12          12          12
           1           1           1           1           1           1
Real atomic weights                        R   N=          12
  1.20000000E+01  1.20000000E+01  1.20000000E+01  1.20000000E+01  1.20000000E+01
  1.20000000E+01  1.00782504E+00  1.00782504E+00  1.00782504E+00  1.00782504E+00
  1.00782504E+00  1.00782504E+00
Atom fragment info                         I   N=          12
           0           0           0           0           0           0
           0           0           0           0           0           0
Atom residue num                           I   N=          12
           0           0           0           0           0           0
           0           0           0           0           0           0
Nuclear spins                              I   N=          12
           0           0           0           0           0           0
           1           1           1           1           1           1
Nuclear ZEff                               R   N=          12
 -3.60000000E+00 -3.60000000E+00 -3.60000000E+00 -3.60000000E+00 -3.60000000E+00
 -3.60000000E+00 -1.00000000E+00 -1.00000000E+00 -1.00000000E+00 -1.00000000E+00
 -1.00000000E+00 -1.00000000E+00
Nuclear QMom                               R   N=          12
  0.00000000E+00  0.00000000E+00  0.00000000E+00  0.00000000E+00  0.00000000E+00
  0.00000000E+00  0.00000000E+00  0.00000000E+00  0.00000000E+00  0.00000000E+00
  0.00000000E+00  0.00000000E+00
Nuclear GFac                               R   N=          12
  0.00000000E+00  0.00000000E+00  0.00000000E+00  0.00000000E+00  0.00000000E+00
  0.00000000E+00  2.79284600E+00  2.79284600E+00  2.79284600E+00  2.79284600E+00
  2.79284600E+00  2.79284600E+00
MicOpt                                     I   N=          12
          -1          -1          -1          -1          -1          -1
          -1          -1          -1          -1          -1          -1
Number of contracted shells                I               66
Number of primitive shells                 I              120
Pure/Cartesian d shells                    I                0
Pure/Cartesian f shells                    I                0
Highest angular momentum                   I                2
Largest degree of contraction              I                6
Shell types                                I   N=          66
           0          -1          -1          -1          -1          -2
           0          -1          -1          -1          -1          -2
           0          -1          -1          -1          -1          -2
           0          -1          -1          -1          -1          -2
           0          -1          -1          -1          -1          -2
           0          -1          -1          -1          -1          -2
           0           0           0           0           1           0
           0           0           0           1           0           0
           0           0           1           0           0           0
           0           1           0           0           0           0
           1           0           0           0           0           1
Number of primitives per shell             I   N=          66
           6           3           1           1           1           1
           6           3           1           1           1           1
           6           3           1           1           1           1
           6           3           1           1           1           1
           6           3           1           1           1           1
           6           3           1           1           1           1
           3           1           1           1           1           3
           1           1           1           1           3           1
           1           1           1           3           1           1
           1           1           3           1           1           1
           1           3           1           1           1           1
Shell to atom map                          I   N=          66
           1           1           1           1           1           1
           2           2           2           2           2           2
           3           3           3           3           3           3
           4           4           4           4           4           4
           5           5           5           5           5           5
           6           6           6           6           6           6
           7           7           7           7           7           8
           8           8           8           8           9           9
           9           9           9          10          10          10
          10          10          11          11          11          11
          11          12          12          12          12          12
Primitive exponents                        R   N=         120
  4.56324000E+03  6.82024000E+02  1.54973000E+02  4.44553000E+01  1.30290000E+01
  1.82773000E+00  2.09642000E+01  4.80331000E+00  1.45933000E+00  4.83456000E-01
  1.45585000E-01  4.38000000E-02  6.26000000E-01  4.56324000E+03  6.82024000E+02
  1.54973000E+02  4.44553000E+01  1.30290000E+01  1.82773000E+00  2.09642000E+01
  4.80331000E+00  1.45933000E+00  4.83456000E-01  1.45585000E-01  4.38000000E-02
  6.26000000E-01  4.56324000E+03  6.82024000E+02  1.54973000E+02  4.44553000E+01
  1.30290000E+01  1.82773000E+00  2.09642000E+01  4.80331000E+00  1.45933000E+00
  4.83456000E-01  1.45585000E-01  4.38000000E-02  6.26000000E-01  4.56324000E+03
  6.82024000E+02  1.54973000E+02  4.44553000E+01  1.30290000E+01  1.82773000E+00
  2.09642000E+01  4.80331000E+00  1.45933000E+00  4.83456000E-01  1.45585000E-01
  4.38000000E-02  6.26000000E-01  4.56324000E+03  6.82024000E+02  1.54973000E+02
  4.44553000E+01  1.30290000E+01  1.82773000E+00  2.09642000E+01  4.80331000E+00
  1.45933000E+00  4.83456000E-01  1.45585000E-01  4.38000000E-02  6.26000000E-01
  4.56324000E+03  6.82024000E+02  1.54973000E+02  4.44553000E+01  1.30290000E+01
  1.82773000E+00  2.09642000E+01  4.80331000E+00  1.45933000E+00  4.83456000E-01
  1.45585000E-01  4.38000000E-02  6.26000000E-01  3.38650000E+01  5.09479000E+00
  1.15879000E+00  3.25840000E-01  1.02741000E-01  3.60000000E-02  7.50000000E-01
  3.38650000E+01  5.09479000E+00  1.15879000E+00  3.25840000E-01  1.02741000E-01
  3.60000000E-02  7.50000000E-01  3.38650000E+01  5.09479000E+00  1.15879000E+00
  3.25840000E-01  1.02741000E-01  3.60000000E-02  7.50000000E-01  3.38650000E+01
  5.09479000E+00  1.15879000E+00  3.25840000E-01  1.02741000E-01  3.60000000E-02
  7.50000000E-01  3.38650000E+01  5.09479000E+00  1.15879000E+00  3.25840000E-01
  1.02741000E-01  3.60000000E-02  7.50000000E-01  3.38650000E+01  5.09479000E+00
  1.15879000E+00  3.25840000E-01  1.02741000E-01  3.60000000E-02  7.50000000E-01
Contraction coefficients                   R   N=         120
  1.96665025E-03  1.52306019E-02  7.61269097E-02  2.60801033E-01  6.16462078E-01
  2.21006028E-01  1.14660081E-01  9.19999648E-01 -3.03068213E-03  1.00000000E+00
  1.00000000E+00  1.00000000E+00  1.00000000E+00  1.96665025E-03  1.52306019E-02
  7.61269097E-02  2.60801033E-01  6.16462078E-01  2.21006028E-01  1.14660081E-01
  9.19999648E-01 -3.03068213E-03  1.00000000E+00  1.00000000E+00  1.00000000E+00
  1.00000000E+00  1.96665025E-03  1.52306019E-02  7.61269097E-02  2.60801033E-01
  6.16462078E-01  2.21006028E-01  1.14660081E-01  9.19999648E-01 -3.03068213E-03
  1.00000000E+00  1.00000000E+00  1.00000000E+00  1.00000000E+00  1.96665025E-03
  1.52306019E-02  7.61269097E-02  2.60801033E-01  6.16462078E-01  2.21006028E-01
  1.14660081E-01  9.19999648E-01 -3.03068213E-03  1.00000000E+00  1.00000000E+00
  1.00000000E+00  1.00000000E+00  1.96665025E-03  1.52306019E-02  7.61269097E-02
  2.60801033E-01  6.16462078E-01  2.21006028E-01  1.14660081E-01  9.19999648E-01
 -3.03068213E-03  1.00000000E+00  1.00000000E+00  1.00000000E+00  1.00000000E+00
  1.96665025E-03  1.52306019E-02  7.61269097E-02  2.60801033E-01  6.16462078E-01
  2.21006028E-01  1.14660081E-01  9.19999648E-01 -3.03068213E-03  1.00000000E+00
  1.00000000E+00  1.00000000E+00  1.00000000E+00  2.54938145E-02  1.90373109E-01
  8.52161486E-01  1.00000000E+00  1.00000000E+00  1.00000000E+00  1.00000000E+00
  2.54938145E-02  1.90373109E-01  8.52161486E-01  1.00000000E+00  1.00000000E+00
  1.00000000E+00  1.00000000E+00  2.54938145E-02  1.90373109E-01  8.52161486E-01
  1.00000000E+00  1.00000000E+00  1.00000000E+00  1.00000000E+00  2.54938145E-02
  1.90373109E-01  8.52161486E-01  1.00000000E+00  1.00000000E+00  1.00000000E+00
  1.00000000E+00  2.54938145E-02  1.90373109E-01  8.52161486E-01  1.00000000E+00
  1.00000000E+00  1.00000000E+00  1.00000000E+00  2.54938145E-02  1.90373109E-01
  8.52161486E-01  1.00000000E+00  1.00000000E+00  1.00000000E+00  1.00000000E+00
P(S=P) Contraction coefficients            R   N=         120
  0.00000000E+00  0.00000000E+00  0.00000000E+00  0.00000000E+00  0.00000000E+00
  0.00000000E+00  4.02486927E-02  2.37593957E-01  8.15853851E-01  1.00000000E+00
  1.00000000E+00  1.00000000E+00  0.00000000E+00  0.00000000E+00  0.00000000E+00
  0.00000000E+00  0.00000000E+00  0.00000000E+00  0.00000000E+00  4.02486927E-02
  2.37593957E-01  8.15853851E-01  1.00000000E+00  1.00000000E+00  1.00000000E+00
  0.00000000E+00  0.00000000E+00  0.00000000E+00  0.00000000E+00  0.00000000E+00
  0.00000000E+00  0.00000000E+00  4.02486927E-02  2.37593957E-01  8.15853851E-01
  1.00000000E+00  1.00000000E+00  1.00000000E+00  0.00000000E+00  0.00000000E+00
  0.00000000E+00  0.00000000E+00  0.00000000E+00  0.00000000E+00  0.00000000E+00
  4.02486927E-02  2.37593957E-01  8.15853851E-01  1.00000000E+00  1.00000000E+00
  1.00000000E+00  0.00000000E+00  0.00000000E+00  0.00000000E+00  0.00000000E+00
  0.00000000E+00  0.00000000E+00  0.00000000E+00  4.02486927E-02  2.37593957E-01
  8.15853851E-01  1.00000000E+00  1.00000000E+00  1.00000000E+00  0.00000000E+00
  0.00000000E+00  0.00000000E+00  0.00000000E+00  0.00000000E+00  0.00000000E+00
  0.00000000E+00  4.02486927E-02  2.37593957E-01  8.15853851E-01  1.00000000E+00
  1.00000000E+00  1.00000000E+00  0.00000000E+00  0.00000000E+00  0.00000000E+00
  0.00000000E+00  0.00000000E+00  0.00000000E+00  0.00000000E+00  0.00000000E+00
  0.00000000E+00  0.00000000E+00  0.00000000E+00  0.00000000E+00  0.00000000E+00
  0.00000000E+00  0.00000000E+00  0.00000000E+00  0.00000000E+00  0.00000000E+00
  0.00000000E+00  0.00000000E+00  0.00000000E+00  0.00000000E+00  0.00000000E+00
  0.00000000E+00  0.00000000E+00  0.00000000E+00  0.00000000E+00  0.00000000E+00
  0.00000000E+00  0.00000000E+00  0.00000000E+00  0.00000000E+00  0.00000000E+00
  0.00000000E+00  0.00000000E+00  0.00000000E+00  0.00000000E+00  0.00000000E+00
  0.00000000E+00  0.00000000E+00  0.00000000E+00  0.00000000E+00  0.00000000E+00
Coordinates of each shell                  R   N=         198
  1.52592339E-01  2.59782055E+00 -9.60618316E-32  1.52592339E-01  2.59782055E+00
 -9.60618316E-32  1.52592339E-01  2.59782055E+00 -9.60618316E-32  1.52592339E-01
  2.59782055E+00 -9.60618316E-32  1.52592339E-01  2.59782055E+00 -9.60618316E-32
  1.52592339E-01  2.59782055E+00 -9.60618316E-32 -1.52592339E-01  1.31454679E+00
  2.28993422E+00 -1.52592339E-01  1.31454679E+00  2.28993422E+00 -1.52592339E-01
  1.31454679E+00  2.28993422E+00 -1.52592339E-01  1.31454679E+00  2.28993422E+00
 -1.52592339E-01  1.31454679E+00  2.28993422E+00 -1.52592339E-01  1.31454679E+00
  2.28993422E+00  1.52592339E-01 -1.31454679E+00  2.28993422E+00  1.52592339E-01
 -1.31454679E+00  2.28993422E+00  1.52592339E-01 -1.31454679E+00  2.28993422E+00
  1.52592339E-01 -1.31454679E+00  2.28993422E+00  1.52592339E-01 -1.31454679E+00
  2.28993422E+00  1.52592339E-01 -1.31454679E+00  2.28993422E+00 -1.52592339E-01
 -2.59782055E+00 -7.25466957E-33 -1.52592339E-01 -2.59782055E+00 -7.25466957E-33
 -1.52592339E-01 -2.59782055E+00 -7.25466957E-33 -1.52592339E-01 -2.59782055E+00
 -7.25466957E-33 -1.52592339E-01 -2.59782055E+00 -7.25466957E-33 -1.52592339E-01
 -2.59782055E+00 -7.25466957E-33  1.52592339E-01 -1.31454679E+00 -2.28993422E+00
  1.52592339E-01 -1.31454679E+00 -2.28993422E+00  1.52592339E-01 -1.31454679E+00
 -2.28993422E+00  1.52592339E-01 -1.31454679E+00 -2.28993422E+00  1.52592339E-01
 -1.31454679E+00 -2.28993422E+00  1.52592339E-01 -1.31454679E+00 -2.28993422E+00
 -1.52592339E-01  1.31454679E+00 -2.28993422E+00 -1.52592339E-01  1.31454679E+00
 -2.28993422E+00 -1.52592339E-01  1.31454679E+00 -2.28993422E+00 -1.52592339E-01
  1.31454679E+00 -2.28993422E+00 -1.52592339E-01  1.31454679E+00 -2.28993422E+00
 -1.52592339E-01  1.31454679E+00 -2.28993422E+00  1.29027932E-01  4.65031458E+00
 -1.71958658E-31  1.29027932E-01  4.65031458E+00 -1.71958658E-31  1.29027932E-01
  4.65031458E+00 -1.71958658E-31  1.29027932E-01  4.65031458E+00 -1.71958658E-31
  1.29027932E-01  4.65031458E+00 -1.71958658E-31 -1.20904547E-01  2.35732618E+00
  4.05512740E+00 -1.20904547E-01  2.35732618E+00  4.05512740E+00 -1.20904547E-01
  2.35732618E+00  4.05512740E+00 -1.20904547E-01  2.35732618E+00  4.05512740E+00
 -1.20904547E-01  2.35732618E+00  4.05512740E+00  1.20904547E-01 -2.35732618E+00
  4.05512740E+00  1.20904547E-01 -2.35732618E+00  4.05512740E+00  1.20904547E-01
 -2.35732618E+00  4.05512740E+00  1.20904547E-01 -2.35732618E+00  4.05512740E+00
  1.20904547E-01 -2.35732618E+00  4.05512740E+00 -1.29027932E-01 -4.65031458E+00
 -1.29864611E-32 -1.29027932E-01 -4.65031458E+00 -1.29864611E-32 -1.29027932E-01
 -4.65031458E+00 -1.29864611E-32 -1.29027932E-01 -4.65031458E+00 -1.29864611E-32
 -1.29027932E-01 -4.65031458E+00 -1.29864611E-32  1.20904547E-01 -2.35732618E+00
 -4.05512740E+00  1.20904547E-01 -2.35732618E+00 -4.05512740E+00  1.20904547E-01
 -2.35732618E+00 -4.05512740E+00  1.20904547E-01 -2.35732618E+00 -4.05512740E+00
  1.20904547E-01 -2.35732618E+00 -4.05512740E+00 -1.20904547E-01  2.35732618E+00
 -4.05512740E+00 -1.20904547E-01  2.35732618E+00 -4.05512740E+00 -1.20904547E-01
  2.35732618E+00 -4.05512740E+00 -1.20904547E-01  2.35732618E+00 -4.05512740E+00
 -1.20904547E-01  2.35732618E+00 -4.05512740E+00
Constraint Structure                       R   N=          36
  1.52592339E-01  2.59782055E+00 -9.60618316E-32 -1.52592339E-01  1.31454679E+00
  2.28993422E+00  1.52592339E-01 -1.31454679E+00  2.28993422E+00 -1.52592339E-01
 -2.59782055E+00 -7.25466957E-33  1.52592339E-01 -1.31454679E+00 -2.28993422E+00
 -1.52592339E-01  1.31454679E+00 -2.28993422E+00  1.29027932E-01  4.65031458E+00
 -1.71958658E-31 -1.20904547E-01  2.35732618E+00  4.05512740E+00  1.20904547E-01
 -2.35732618E+00  4.05512740E+00 -1.29027932E-01 -4.65031458E+00 -1.29864611E-32
  1.20904547E-01 -2.35732618E+00 -4.05512740E+00 -1.20904547E-01  2.35732618E+00
 -4.05512740E+00
Num ILSW                                   I              100
ILSW                                       I   N=         100
           0           0           0           0           2           0
           0           0           0           0           0          -1
           0           0           0           0           0           0
           0           0           0           0           0           0
           1           0           0           0           0           0
           0           0      100000           0          -1           0
           0           0           0           0           0           0
           0           0           0           1           0           0
           0           0           1           0           0           0
           0           0           4          40           0           0
           0           0           0           0           0           0
           0           0           0           0           0           0
           0           0           0           0           0           0
           0           0           0           0           0           0
           0           0           0           0           0           0
           0           0           0           0           0           0
           0           0           0           0
Num RLSW                                   I               40
RLSW                                       R   N=          40
  1.00000000E+00  1.00000000E+00  1.00000000E+00  1.00000000E+00  1.00000000E+00
  0.00000000E+00  0.00000000E+00  1.00000000E+00  0.00000000E+00  0.00000000E+00
  0.00000000E+00  0.00000000E+00  1.00000000E+00  0.00000000E+00  0.00000000E+00
  0.00000000E+00  0.00000000E+00  1.00000000E+00  0.00000000E+00  0.00000000E+00
  0.00000000E+00  0.00000000E+00  1.00000000E+00  0.00000000E+00  0.00000000E+00
  0.00000000E+00  0.00000000E+00  1.00000000E+00  0.00000000E+00  0.00000000E+00
  0.00000000E+00  0.00000000E+00  0.00000000E+00  0.00000000E+00  0.00000000E+00
  0.00000000E+00  0.00000000E+00  0.00000000E+00  1.00000000E+00  1.00000000E+00
MxBond                                     I                3
NBond                                      I   N=          12
           3           3           3           3           3           3
           1           1           1           1           1           1
IBond                                      I   N=          36
           2           6           7           1           3           8
           2           4           9           3           5          10
           4           6          11           1           5          12
           1           0           0           2           0           0
           3           0           0           4           0           0
           5           0           0           6           0           0
RBond                                      R   N=          36
  1.50000000E+00  1.50000000E+00  1.00000000E+00  1.50000000E+00  1.50000000E+00
  1.00000000E+00  1.50000000E+00  1.50000000E+00  1.00000000E+00  1.50000000E+00
  1.50000000E+00  1.00000000E+00  1.50000000E+00  1.50000000E+00  1.00000000E+00
  1.50000000E+00  1.50000000E+00  1.00000000E+00  1.00000000E+00  0.00000000E+00
  0.00000000E+00  1.00000000E+00  0.00000000E+00  0.00000000E+00  1.00000000E+00
  0.00000000E+00  0.00000000E+00  1.00000000E+00  0.00000000E+00  0.00000000E+00
  1.00000000E+00  0.00000000E+00  0.00000000E+00  1.00000000E+00  0.00000000E+00
  0.00000000E+00
Virial Ratio                               R      2.001297330454938E+00
SCF Energy                                 R     -2.307343329329194E+02
MP2 Energy                                 R     -2.315689627290227E+02
Total Energy                               R     -2.315689627290227E+02
Post-SCF wavefunction norm                 R      1.145875813053397E+00
RMS Density                                R      6.047970898176560E-09
External E-field                           R   N=          35
  0.00000000E+00  0.00000000E+00  0.00000000E+00  0.00000000E+00  0.00000000E+00
  0.00000000E+00  0.00000000E+00  0.00000000E+00  0.00000000E+00  0.00000000E+00
  0.00000000E+00  0.00000000E+00  0.00000000E+00  0.00000000E+00  0.00000000E+00
  0.00000000E+00  0.00000000E+00  0.00000000E+00  0.00000000E+00  0.00000000E+00
  0.00000000E+00  0.00000000E+00  0.00000000E+00  0.00000000E+00  0.00000000E+00
  0.00000000E+00  0.00000000E+00  0.00000000E+00  0.00000000E+00  0.00000000E+00
  0.00000000E+00  0.00000000E+00  0.00000000E+00  0.00000000E+00  0.00000000E+00
IOpCl                                      I                0
IROHF                                      I                0
Alpha Orbital Energies                     R   N=         174
 -1.12406334E+01 -1.12403383E+01 -1.12397437E+01 -1.12391467E+01 -1.12381897E+01
 -1.12379443E+01 -1.15275146E+00 -1.01664579E+00 -1.01442788E+00 -8.24595228E-01
 -8.21577368E-01 -7.10014613E-01 -6.45129993E-01 -6.13864954E-01 -5.91081743E-01
 -5.85163747E-01 -5.01523815E-01 -4.98443710E-01 -4.92370253E-01 -3.34549221E-01
 -3.33062017E-01  4.20517400E-02  4.92270401E-02  4.93716009E-02  6.70386675E-02
  6.71990272E-02  9.93213662E-02  1.04432907E-01  1.06339162E-01  1.09737793E-01
  1.32402655E-01  1.49554725E-01  1.50138685E-01  1.63054770E-01  1.82575202E-01
  1.83582113E-01  1.85207603E-01  1.85411055E-01  1.91664404E-01  2.12162082E-01
  2.12942533E-01  2.13156665E-01  2.13590225E-01  2.13892312E-01  2.23597737E-01
  2.24450323E-01  2.27753260E-01  2.38023094E-01  2.54879989E-01  2.55487524E-01
  2.56165827E-01  2.89613410E-01  2.90112877E-01  3.26781078E-01  3.46200185E-01
  4.06110256E-01  4.06110449E-01  4.08558092E-01  4.25465831E-01  4.26192815E-01
  4.94981588E-01  4.95295313E-01  5.09907778E-01  5.12535591E-01  5.39830626E-01
  6.05483993E-01  6.14063033E-01  6.57440228E-01  7.27946938E-01  7.42993796E-01
  7.43747935E-01  7.46553100E-01  7.48410663E-01  7.65878065E-01  7.66720047E-01
  7.75075930E-01  8.12246137E-01  8.12474599E-01  8.22175408E-01  8.83923860E-01
  9.30031141E-01  9.32304878E-01  9.45940244E-01  9.49759445E-01  9.74979793E-01
  9.98847652E-01  9.99626120E-01  1.02031708E+00  1.02357398E+00  1.02469780E+00
  1.05841321E+00  1.11682150E+00  1.11888653E+00  1.12803411E+00  1.18564064E+00
  1.19115033E+00  1.32646616E+00  1.36307914E+00  1.36653393E+00  1.39217814E+00
  1.39627974E+00  1.54538306E+00  1.59679295E+00  1.71255174E+00  1.78126262E+00
  1.79193702E+00  1.80883779E+00  1.83113860E+00  1.84209779E+00  1.84280711E+00
  1.89971317E+00  1.90686664E+00  1.93420842E+00  1.94253568E+00  1.98891046E+00
  2.04774691E+00  2.05214467E+00  2.06929708E+00  2.09976268E+00  2.10977094E+00
  2.12962338E+00  2.17718116E+00  2.18805029E+00  2.28736062E+00  2.29526036E+00
  2.30161849E+00  2.35714294E+00  2.36124746E+00  2.38244529E+00  2.38666297E+00
  2.57548182E+00  2.59422584E+00  2.65440521E+00  2.76197519E+00  2.76522081E+00
  2.79530707E+00  2.82267484E+00  2.82924713E+00  2.94910956E+00  2.96039285E+00
  2.97896477E+00  3.00119174E+00  3.02888302E+00  3.03108047E+00  3.03770697E+00
  3.03894255E+00  3.11028206E+00  3.14472509E+00  3.18719145E+00  3.19028328E+00
  3.31964984E+00  3.32302293E+00  3.33768861E+00  3.34644599E+00  3.46904205E+00
  3.53498134E+00  3.76722745E+00  3.76754226E+00  3.89502940E+00  3.89710773E+00
  3.90552534E+00  3.92985796E+00  4.41166541E+00  4.41781358E+00  4.43309451E+00
  4.60939325E+00  4.61690518E+00  4.99907468E+00  2.47570028E+01  2.51184759E+01
  2.51212616E+01  2.52498427E+01  2.52560924E+01  2.52831487E+01
Alpha MO coefficients                      R   N=       30276
  1.45120531E-01  1.20127960E-01 -2.90000666E-05 -5.32369054E-05  0.00000000E+00
  1.41785195E-03 -2.67473773E-05 -1.77833479E-04  0.00000000E+00 -3.05505731E-04
  1.28049717E-04 -1.73345970E-05  0.00000000E+00 -1.00436876E-03 -5.02442881E-04
  1.64914584E-04  0.00000000E+00  7.82139267E-05  0.00000000E+00  0.00000000E+00
 -9.01889961E-06  2.25296586E-06  2.62231844E-01  2.17135528E-01  4.59461390E-05
 -3.21505797E-05  1.49105472E-05  2.22869196E-03  3.38879342E-05 -1.30931382E-04
 -1.64997878E-04 -4.42277606E-04 -1.26382506E-04  3.32432898E-05  4.34791802E-05
  3.65531380E-04  5.25352101E-04 -1.77620133E-04 -3.44246748E-04  3.70444317E-05
 -9.84273014E-06 -5.01198447E-05 -1.46765675E-04 -1.96530175E-06  2.62231844E-01
  2.17135528E-01 -4.59461390E-05  3.21505797E-05  1.49105472E-05  2.22869196E-03
 -3.38879342E-05  1.30931382E-04 -1.64997878E-04 -4.42277606E-04  1.26382506E-04
 -3.32432898E-05  4.34791802E-05  3.65531380E-04 -5.25352101E-04  1.77620133E-04
 -3.44246748E-04  3.70444317E-05  9.84273014E-06  5.01198447E-05 -1.46765675E-04
 -1.96530175E-06  1.45120531E-01  1.20127960E-01  2.90000666E-05  5.32369054E-05
  0.00000000E+00  1.41785195E-03  2.67473773E-05  1.77833479E-04  0.00000000E+00
 -3.05505731E-04 -1.28049717E-04  1.73345970E-05  0.00000000E+00 -1.00436876E-03
  5.02442881E-04 -1.64914584E-04  0.00000000E+00  7.82139267E-05  0.00000000E+00
  0.00000000E+00 -9.01889961E-06  2.25296586E-06  2.62231844E-01  2.17135528E-01
 -4.59461390E-05  3.21505797E-05 -1.49105472E-05  2.22869196E-03 -3.38879342E-05
  1.30931382E-04  1.64997878E-04 -4.42277606E-04  1.26382506E-04 -3.32432898E-05
 -4.34791802E-05  3.65531380E-04 -5.25352101E-04  1.77620133E-04  3.44246748E-04
  3.70444317E-05 -9.84273014E-06 -5.01198447E-05 -1.46765675E-04 -1.96530175E-06
  2.62231844E-01  2.17135528E-01  4.59461390E-05 -3.21505797E-05 -1.49105472E-05
  2.22869196E-03  3.38879342E-05 -1.30931382E-04  1.64997878E-04 -4.42277606E-04
 -1.26382506E-04  3.32432898E-05 -4.34791802E-05  3.65531380E-04  5.25352101E-04
 -1.77620133E-04  3.44246748E-04  3.70444317E-05  9.84273014E-06  5.01198447E-05
 -1.46765675E-04 -1.96530175E-06  1.10817068E-04  5.02001127E-05  9.91782799E-05
 -1.62493561E-05 -7.62954206E-06 -4.03912185E-05  0.00000000E+00  1.95590605E-04
  4.32496451E-07  1.88137115E-04  1.85269436E-04  9.08755678E-06 -2.15030702E-05
 -3.06044208E-05  1.95590605E-04  4.32496451E-07  1.88137115E-04  1.85269436E-04
 -9.08755678E-06  2.15030702E-05 -3.06044208E-05  1.10817068E-04  5.02001127E-05
  9.91782799E-05 -1.62493561E-05  7.62954206E-06  4.03912185E-05  0.00000000E+00
  1.95590605E-04  4.32496451E-07  1.88137115E-04  1.85269436E-04 -9.08755678E-06
  2.15030702E-05  3.06044208E-05  1.95590605E-04  4.32496451E-07  1.88137115E-04
  1.85269436E-04  9.08755678E-06 -2.15030702E-05  3.06044208E-05  0.00000000E+00
  0.00000000E+00  0.00000000E+00  0.00000000E+00  1.84967549E-04  0.00000000E+00
  0.00000000E+00  0.00000000E+00  1.46299997E-04  0.00000000E+00  0.00000000E+00
  0.00000000E+00 -6.62998491E-05  0.00000000E+00  0.00000000E+00  0.00000000E+00
  2.33445581E-04  0.00000000E+00  9.77450897E-06 -1.04062953E-04  0.00000000E+00
  0.00000000E+00  2.81625313E-01  2.33215238E-01  5.41537286E-05 -7.38643583E-05
  4.76671331E-05  2.28399997E-03  9.01760605E-06 -1.29327397E-04 -7.64779466E-05
 -4.19367954E-04 -2.74045399E-06  2.08025888E-05 -2.86586684E-05  1.66614424E-04
 -3.83403305E-05 -5.67627833E-04 -7.34621222E-04  1.10514024E-05 -1.21855474E-05
 -3.91180621E-05 -1.82550006E-04 -1.18107364E-06  2.81625313E-01  2.33215238E-01
 -5.41537286E-05  7.38643583E-05  4.76671331E-05  2.28399997E-03 -9.01760605E-06
  1.29327397E-04 -7.64779466E-05 -4.19367954E-04  2.74045399E-06 -2.08025888E-05
 -2.86586684E-05  1.66614424E-04  3.83403305E-05  5.67627833E-04 -7.34621222E-04
  1.10514024E-05  1.21855474E-05  3.91180621E-05 -1.82550006E-04 -1.18107364E-06
  0.00000000E+00  0.00000000E+00  0.00000000E+00  0.00000000E+00  1.84967549E-04
  0.00000000E+00  0.00000000E+00  0.00000000E+00  1.46299997E-04  0.00000000E+00
  0.00000000E+00  0.00000000E+00 -6.62998491E-05  0.00000000E+00  0.00000000E+00
  0.00000000E+00  2.33445581E-04  0.00000000E+00 -9.77450897E-06  1.04062953E-04
  0.00000000E+00  0.00000000E+00 -2.81625313E-01 -2.33215238E-01  5.41537286E-05
 -7.38643583E-05  4.76671331E-05 -2.28399997E-03  9.01760605E-06 -1.29327397E-04
 -7.64779466E-05  4.19367954E-04 -2.74045399E-06  2.08025888E-05 -2.86586684E-05
 -1.66614424E-04 -3.83403305E-05 -5.67627833E-04 -7.34621222E-04 -1.10514024E-05
  1.21855474E-05  3.91180621E-05  1.82550006E-04  1.18107364E-06 -2.81625313E-01
 -2.33215238E-01 -5.41537286E-05  7.38643583E-05  4.76671331E-05 -2.28399997E-03
 -9.01760605E-06  1.29327397E-04 -7.64779466E-05  4.19367954E-04  2.74045399E-06