Chair-25                                                                
SP        RMP2-FC                                                     6-311++G(d,p)       
Number of atoms                            I               12
Info1-9                                    I   N=           9
          19          19           0           0           0         110
           1           2           1
Full Title                                 C   N=           1
Chair-25    
Route                                      C   N=           3
#P MP2/6-311++G** nosymm Density=MP2
Charge                                     I                0
Multiplicity                               I                1
Number of electrons                        I               42
Number of alpha electrons                  I               21
Number of beta electrons                   I               21
Number of basis functions                  I              174
Number of independent functions            I              174
Number of point charges in /Mol/           I                0
Number of translation vectors              I                0
Atomic numbers                             I   N=          12
           6           6           6           6           6           6
           1           1           1           1           1           1
Nuclear charges                            R   N=          12
  6.00000000E+00  6.00000000E+00  6.00000000E+00  6.00000000E+00  6.00000000E+00
  6.00000000E+00  1.00000000E+00  1.00000000E+00  1.00000000E+00  1.00000000E+00
  1.00000000E+00  1.00000000E+00
Current cartesian coordinates              R   N=          36
  2.57622082E+00  0.00000000E+00  1.90185306E-01  1.31290253E+00  2.29443760E+00
 -1.90185306E-01 -1.31290253E+00  2.29443760E+00  1.90185306E-01 -2.57622082E+00
  0.00000000E+00 -1.90185306E-01 -1.31290253E+00 -2.29443760E+00  1.90185306E-01
  1.31290253E+00 -2.29443760E+00 -1.90185306E-01  4.63057095E+00  0.00000000E+00
  1.66163543E-01  2.36615002E+00  4.05398818E+00 -1.50836957E-01 -2.36615002E+00
  4.05398818E+00  1.50836957E-01 -4.63057095E+00  0.00000000E+00 -1.66163543E-01
 -2.36615002E+00 -4.05398818E+00  1.50836957E-01  2.36615002E+00 -4.05398818E+00
 -1.50836957E-01
Number of symbols in /Mol/                 I                0
Force Field                                I                0
Atom Types                                 C   N=          12
                                                            
                                                            
                        
Int Atom Types                             I   N=          12
           0           0           0           0           0           0
           0           0           0           0           0           0
MM charges                                 R   N=          12
  0.00000000E+00  0.00000000E+00  0.00000000E+00  0.00000000E+00  0.00000000E+00
  0.00000000E+00  0.00000000E+00  0.00000000E+00  0.00000000E+00  0.00000000E+00
  0.00000000E+00  0.00000000E+00
Integer atomic weights                     I   N=          12
          12          12          12          12          12          12
           1           1           1           1           1           1
Real atomic weights                        R   N=          12
  1.20000000E+01  1.20000000E+01  1.20000000E+01  1.20000000E+01  1.20000000E+01
  1.20000000E+01  1.00782504E+00  1.00782504E+00  1.00782504E+00  1.00782504E+00
  1.00782504E+00  1.00782504E+00
Atom fragment info                         I   N=          12
           0           0           0           0           0           0
           0           0           0           0           0           0
Atom residue num                           I   N=          12
           0           0           0           0           0           0
           0           0           0           0           0           0
Nuclear spins                              I   N=          12
           0           0           0           0           0           0
           1           1           1           1           1           1
Nuclear ZEff                               R   N=          12
 -3.60000000E+00 -3.60000000E+00 -3.60000000E+00 -3.60000000E+00 -3.60000000E+00
 -3.60000000E+00 -1.00000000E+00 -1.00000000E+00 -1.00000000E+00 -1.00000000E+00
 -1.00000000E+00 -1.00000000E+00
Nuclear ZNuc                               R   N=          12
  6.00000000E+00  6.00000000E+00  6.00000000E+00  6.00000000E+00  6.00000000E+00
  6.00000000E+00  1.00000000E+00  1.00000000E+00  1.00000000E+00  1.00000000E+00
  1.00000000E+00  1.00000000E+00
Nuclear QMom                               R   N=          12
  0.00000000E+00  0.00000000E+00  0.00000000E+00  0.00000000E+00  0.00000000E+00
  0.00000000E+00  0.00000000E+00  0.00000000E+00  0.00000000E+00  0.00000000E+00
  0.00000000E+00  0.00000000E+00
Nuclear GFac                               R   N=          12
  0.00000000E+00  0.00000000E+00  0.00000000E+00  0.00000000E+00  0.00000000E+00
  0.00000000E+00  2.79284600E+00  2.79284600E+00  2.79284600E+00  2.79284600E+00
  2.79284600E+00  2.79284600E+00
MicOpt                                     I   N=          12
          -1          -1          -1          -1          -1          -1
          -1          -1          -1          -1          -1          -1
Number of residues                         I                0
Number of secondary structures             I                0
Number of contracted shells                I               66
Number of primitive shells                 I              120
Pure/Cartesian d shells                    I                0
Pure/Cartesian f shells                    I                0
Highest angular momentum                   I                2
Largest degree of contraction              I                6
Shell types                                I   N=          66
           0          -1          -1          -1          -1          -2
           0          -1          -1          -1          -1          -2
           0          -1          -1          -1          -1          -2
           0          -1          -1          -1          -1          -2
           0          -1          -1          -1          -1          -2
           0          -1          -1          -1          -1          -2
           0           0           0           0           1           0
           0           0           0           1           0           0
           0           0           1           0           0           0
           0           1           0           0           0           0
           1           0           0           0           0           1
Number of primitives per shell             I   N=          66
           6           3           1           1           1           1
           6           3           1           1           1           1
           6           3           1           1           1           1
           6           3           1           1           1           1
           6           3           1           1           1           1
           6           3           1           1           1           1
           3           1           1           1           1           3
           1           1           1           1           3           1
           1           1           1           3           1           1
           1           1           3           1           1           1
           1           3           1           1           1           1
Shell to atom map                          I   N=          66
           1           1           1           1           1           1
           2           2           2           2           2           2
           3           3           3           3           3           3
           4           4           4           4           4           4
           5           5           5           5           5           5
           6           6           6           6           6           6
           7           7           7           7           7           8
           8           8           8           8           9           9
           9           9           9          10          10          10
          10          10          11          11          11          11
          11          12          12          12          12          12
Primitive exponents                        R   N=         120
  4.56324000E+03  6.82024000E+02  1.54973000E+02  4.44553000E+01  1.30290000E+01
  1.82773000E+00  2.09642000E+01  4.80331000E+00  1.45933000E+00  4.83456000E-01
  1.45585000E-01  4.38000000E-02  6.26000000E-01  4.56324000E+03  6.82024000E+02
  1.54973000E+02  4.44553000E+01  1.30290000E+01  1.82773000E+00  2.09642000E+01
  4.80331000E+00  1.45933000E+00  4.83456000E-01  1.45585000E-01  4.38000000E-02
  6.26000000E-01  4.56324000E+03  6.82024000E+02  1.54973000E+02  4.44553000E+01
  1.30290000E+01  1.82773000E+00  2.09642000E+01  4.80331000E+00  1.45933000E+00
  4.83456000E-01  1.45585000E-01  4.38000000E-02  6.26000000E-01  4.56324000E+03
  6.82024000E+02  1.54973000E+02  4.44553000E+01  1.30290000E+01  1.82773000E+00
  2.09642000E+01  4.80331000E+00  1.45933000E+00  4.83456000E-01  1.45585000E-01
  4.38000000E-02  6.26000000E-01  4.56324000E+03  6.82024000E+02  1.54973000E+02
  4.44553000E+01  1.30290000E+01  1.82773000E+00  2.09642000E+01  4.80331000E+00
  1.45933000E+00  4.83456000E-01  1.45585000E-01  4.38000000E-02  6.26000000E-01
  4.56324000E+03  6.82024000E+02  1.54973000E+02  4.44553000E+01  1.30290000E+01
  1.82773000E+00  2.09642000E+01  4.80331000E+00  1.45933000E+00  4.83456000E-01
  1.45585000E-01  4.38000000E-02  6.26000000E-01  3.38650000E+01  5.09479000E+00
  1.15879000E+00  3.25840000E-01  1.02741000E-01  3.60000000E-02  7.50000000E-01
  3.38650000E+01  5.09479000E+00  1.15879000E+00  3.25840000E-01  1.02741000E-01
  3.60000000E-02  7.50000000E-01  3.38650000E+01  5.09479000E+00  1.15879000E+00
  3.25840000E-01  1.02741000E-01  3.60000000E-02  7.50000000E-01  3.38650000E+01
  5.09479000E+00  1.15879000E+00  3.25840000E-01  1.02741000E-01  3.60000000E-02
  7.50000000E-01  3.38650000E+01  5.09479000E+00  1.15879000E+00  3.25840000E-01
  1.02741000E-01  3.60000000E-02  7.50000000E-01  3.38650000E+01  5.09479000E+00
  1.15879000E+00  3.25840000E-01  1.02741000E-01  3.60000000E-02  7.50000000E-01
Contraction coefficients                   R   N=         120
  1.96665025E-03  1.52306019E-02  7.61269097E-02  2.60801033E-01  6.16462078E-01
  2.21006028E-01  1.14660081E-01  9.19999648E-01 -3.03068213E-03  1.00000000E+00
  1.00000000E+00  1.00000000E+00  1.00000000E+00  1.96665025E-03  1.52306019E-02
  7.61269097E-02  2.60801033E-01  6.16462078E-01  2.21006028E-01  1.14660081E-01
  9.19999648E-01 -3.03068213E-03  1.00000000E+00  1.00000000E+00  1.00000000E+00
  1.00000000E+00  1.96665025E-03  1.52306019E-02  7.61269097E-02  2.60801033E-01
  6.16462078E-01  2.21006028E-01  1.14660081E-01  9.19999648E-01 -3.03068213E-03
  1.00000000E+00  1.00000000E+00  1.00000000E+00  1.00000000E+00  1.96665025E-03
  1.52306019E-02  7.61269097E-02  2.60801033E-01  6.16462078E-01  2.21006028E-01
  1.14660081E-01  9.19999648E-01 -3.03068213E-03  1.00000000E+00  1.00000000E+00
  1.00000000E+00  1.00000000E+00  1.96665025E-03  1.52306019E-02  7.61269097E-02
  2.60801033E-01  6.16462078E-01  2.21006028E-01  1.14660081E-01  9.19999648E-01
 -3.03068213E-03  1.00000000E+00  1.00000000E+00  1.00000000E+00  1.00000000E+00
  1.96665025E-03  1.52306019E-02  7.61269097E-02  2.60801033E-01  6.16462078E-01
  2.21006028E-01  1.14660081E-01  9.19999648E-01 -3.03068213E-03  1.00000000E+00
  1.00000000E+00  1.00000000E+00  1.00000000E+00  2.54938145E-02  1.90373109E-01
  8.52161486E-01  1.00000000E+00  1.00000000E+00  1.00000000E+00  1.00000000E+00
  2.54938145E-02  1.90373109E-01  8.52161486E-01  1.00000000E+00  1.00000000E+00
  1.00000000E+00  1.00000000E+00  2.54938145E-02  1.90373109E-01  8.52161486E-01
  1.00000000E+00  1.00000000E+00  1.00000000E+00  1.00000000E+00  2.54938145E-02
  1.90373109E-01  8.52161486E-01  1.00000000E+00  1.00000000E+00  1.00000000E+00
  1.00000000E+00  2.54938145E-02  1.90373109E-01  8.52161486E-01  1.00000000E+00
  1.00000000E+00  1.00000000E+00  1.00000000E+00  2.54938145E-02  1.90373109E-01
  8.52161486E-01  1.00000000E+00  1.00000000E+00  1.00000000E+00  1.00000000E+00
P(S=P) Contraction coefficients            R   N=         120
  0.00000000E+00  0.00000000E+00  0.00000000E+00  0.00000000E+00  0.00000000E+00
  0.00000000E+00  4.02486927E-02  2.37593957E-01  8.15853851E-01  1.00000000E+00
  1.00000000E+00  1.00000000E+00  0.00000000E+00  0.00000000E+00  0.00000000E+00
  0.00000000E+00  0.00000000E+00  0.00000000E+00  0.00000000E+00  4.02486927E-02
  2.37593957E-01  8.15853851E-01  1.00000000E+00  1.00000000E+00  1.00000000E+00
  0.00000000E+00  0.00000000E+00  0.00000000E+00  0.00000000E+00  0.00000000E+00
  0.00000000E+00  0.00000000E+00  4.02486927E-02  2.37593957E-01  8.15853851E-01
  1.00000000E+00  1.00000000E+00  1.00000000E+00  0.00000000E+00  0.00000000E+00
  0.00000000E+00  0.00000000E+00  0.00000000E+00  0.00000000E+00  0.00000000E+00
  4.02486927E-02  2.37593957E-01  8.15853851E-01  1.00000000E+00  1.00000000E+00
  1.00000000E+00  0.00000000E+00  0.00000000E+00  0.00000000E+00  0.00000000E+00
  0.00000000E+00  0.00000000E+00  0.00000000E+00  4.02486927E-02  2.37593957E-01
  8.15853851E-01  1.00000000E+00  1.00000000E+00  1.00000000E+00  0.00000000E+00
  0.00000000E+00  0.00000000E+00  0.00000000E+00  0.00000000E+00  0.00000000E+00
  0.00000000E+00  4.02486927E-02  2.37593957E-01  8.15853851E-01  1.00000000E+00
  1.00000000E+00  1.00000000E+00  0.00000000E+00  0.00000000E+00  0.00000000E+00
  0.00000000E+00  0.00000000E+00  0.00000000E+00  0.00000000E+00  0.00000000E+00
  0.00000000E+00  0.00000000E+00  0.00000000E+00  0.00000000E+00  0.00000000E+00
  0.00000000E+00  0.00000000E+00  0.00000000E+00  0.00000000E+00  0.00000000E+00
  0.00000000E+00  0.00000000E+00  0.00000000E+00  0.00000000E+00  0.00000000E+00
  0.00000000E+00  0.00000000E+00  0.00000000E+00  0.00000000E+00  0.00000000E+00
  0.00000000E+00  0.00000000E+00  0.00000000E+00  0.00000000E+00  0.00000000E+00
  0.00000000E+00  0.00000000E+00  0.00000000E+00  0.00000000E+00  0.00000000E+00
  0.00000000E+00  0.00000000E+00  0.00000000E+00  0.00000000E+00  0.00000000E+00
Coordinates of each shell                  R   N=         198
  2.57622082E+00  0.00000000E+00  1.90185306E-01  2.57622082E+00  0.00000000E+00
  1.90185306E-01  2.57622082E+00  0.00000000E+00  1.90185306E-01  2.57622082E+00
  0.00000000E+00  1.90185306E-01  2.57622082E+00  0.00000000E+00  1.90185306E-01
  2.57622082E+00  0.00000000E+00  1.90185306E-01  1.31290253E+00  2.29443760E+00
 -1.90185306E-01  1.31290253E+00  2.29443760E+00 -1.90185306E-01  1.31290253E+00
  2.29443760E+00 -1.90185306E-01  1.31290253E+00  2.29443760E+00 -1.90185306E-01
  1.31290253E+00  2.29443760E+00 -1.90185306E-01  1.31290253E+00  2.29443760E+00
 -1.90185306E-01 -1.31290253E+00  2.29443760E+00  1.90185306E-01 -1.31290253E+00
  2.29443760E+00  1.90185306E-01 -1.31290253E+00  2.29443760E+00  1.90185306E-01
 -1.31290253E+00  2.29443760E+00  1.90185306E-01 -1.31290253E+00  2.29443760E+00
  1.90185306E-01 -1.31290253E+00  2.29443760E+00  1.90185306E-01 -2.57622082E+00
  0.00000000E+00 -1.90185306E-01 -2.57622082E+00  0.00000000E+00 -1.90185306E-01
 -2.57622082E+00  0.00000000E+00 -1.90185306E-01 -2.57622082E+00  0.00000000E+00
 -1.90185306E-01 -2.57622082E+00  0.00000000E+00 -1.90185306E-01 -2.57622082E+00
  0.00000000E+00 -1.90185306E-01 -1.31290253E+00 -2.29443760E+00  1.90185306E-01
 -1.31290253E+00 -2.29443760E+00  1.90185306E-01 -1.31290253E+00 -2.29443760E+00
  1.90185306E-01 -1.31290253E+00 -2.29443760E+00  1.90185306E-01 -1.31290253E+00
 -2.29443760E+00  1.90185306E-01 -1.31290253E+00 -2.29443760E+00  1.90185306E-01
  1.31290253E+00 -2.29443760E+00 -1.90185306E-01  1.31290253E+00 -2.29443760E+00
 -1.90185306E-01  1.31290253E+00 -2.29443760E+00 -1.90185306E-01  1.31290253E+00
 -2.29443760E+00 -1.90185306E-01  1.31290253E+00 -2.29443760E+00 -1.90185306E-01
  1.31290253E+00 -2.29443760E+00 -1.90185306E-01  4.63057095E+00  0.00000000E+00
  1.66163543E-01  4.63057095E+00  0.00000000E+00  1.66163543E-01  4.63057095E+00
  0.00000000E+00  1.66163543E-01  4.63057095E+00  0.00000000E+00  1.66163543E-01
  4.63057095E+00  0.00000000E+00  1.66163543E-01  2.36615002E+00  4.05398818E+00
 -1.50836957E-01  2.36615002E+00  4.05398818E+00 -1.50836957E-01  2.36615002E+00
  4.05398818E+00 -1.50836957E-01  2.36615002E+00  4.05398818E+00 -1.50836957E-01
  2.36615002E+00  4.05398818E+00 -1.50836957E-01 -2.36615002E+00  4.05398818E+00
  1.50836957E-01 -2.36615002E+00  4.05398818E+00  1.50836957E-01 -2.36615002E+00
  4.05398818E+00  1.50836957E-01 -2.36615002E+00  4.05398818E+00  1.50836957E-01
 -2.36615002E+00  4.05398818E+00  1.50836957E-01 -4.63057095E+00  0.00000000E+00
 -1.66163543E-01 -4.63057095E+00  0.00000000E+00 -1.66163543E-01 -4.63057095E+00
  0.00000000E+00 -1.66163543E-01 -4.63057095E+00  0.00000000E+00 -1.66163543E-01
 -4.63057095E+00  0.00000000E+00 -1.66163543E-01 -2.36615002E+00 -4.05398818E+00
  1.50836957E-01 -2.36615002E+00 -4.05398818E+00  1.50836957E-01 -2.36615002E+00
 -4.05398818E+00  1.50836957E-01 -2.36615002E+00 -4.05398818E+00  1.50836957E-01
 -2.36615002E+00 -4.05398818E+00  1.50836957E-01  2.36615002E+00 -4.05398818E+00
 -1.50836957E-01  2.36615002E+00 -4.05398818E+00 -1.50836957E-01  2.36615002E+00
 -4.05398818E+00 -1.50836957E-01  2.36615002E+00 -4.05398818E+00 -1.50836957E-01
  2.36615002E+00 -4.05398818E+00 -1.50836957E-01
Num ILSW                                   I              100
ILSW                                       I   N=         100
           0           0           0           0           2           0
           0           0           0           0           0          -1
           5           0           0           0           0           0
           0           0           0           0           0           0
           1           1           0           0           0           0
           0           0      100000           0          -1           0
           0           0           0           0           0           0
           0           0           0           1           0           0
           0 -2000000000           1           0           0           0
           0           0           4          52           0           0
           0           0           0           0           0           0
           0           0           0          12           0           1
           0           0           0           0           0           0
           0           0           0           0           0           0
           0           0           0           0           0           0
           0           0           0           0           0           0
           0           0           0           0
Num RLSW                                   I               52
RLSW                                       R   N=          52
  1.00000000E+00  1.00000000E+00  1.00000000E+00  1.00000000E+00  1.00000000E+00
  0.00000000E+00  0.00000000E+00  1.00000000E+00  0.00000000E+00  0.00000000E+00
  0.00000000E+00  0.00000000E+00  1.00000000E+00  0.00000000E+00  0.00000000E+00
  0.00000000E+00  0.00000000E+00  1.00000000E+00  0.00000000E+00  0.00000000E+00
  0.00000000E+00  0.00000000E+00  1.00000000E+00  0.00000000E+00  0.00000000E+00
  0.00000000E+00  0.00000000E+00  1.00000000E+00  0.00000000E+00  0.00000000E+00
  0.00000000E+00  0.00000000E+00  1.00000000E+00  0.00000000E+00  0.00000000E+00
  0.00000000E+00  0.00000000E+00  0.00000000E+00  1.00000000E+00  1.00000000E+00
  0.00000000E+00  1.00000000E+00  0.00000000E+00  0.00000000E+00  0.00000000E+00
  0.00000000E+00  0.00000000E+00  0.00000000E+00  0.00000000E+00  0.00000000E+00
  0.00000000E+00  0.00000000E+00
MxBond                                     I                3
NBond                                      I   N=          12
           3           3           3           3           3           3
           1           1           1           1           1           1
IBond                                      I   N=          36
           2           6           7           1           3           8
           2           4           9           3           5          10
           4           6          11           1           5          12
           1           0           0           2           0           0
           3           0           0           4           0           0
           5           0           0           6           0           0
RBond                                      R   N=          36
  1.50000000E+00  1.50000000E+00  1.00000000E+00  1.50000000E+00  1.50000000E+00
  1.00000000E+00  1.50000000E+00  1.50000000E+00  1.00000000E+00  1.50000000E+00
  1.50000000E+00  1.00000000E+00  1.50000000E+00  1.50000000E+00  1.00000000E+00
  1.50000000E+00  1.50000000E+00  1.00000000E+00  1.00000000E+00  0.00000000E+00
  0.00000000E+00  1.00000000E+00  0.00000000E+00  0.00000000E+00  1.00000000E+00
  0.00000000E+00  0.00000000E+00  1.00000000E+00  0.00000000E+00  0.00000000E+00
  1.00000000E+00  0.00000000E+00  0.00000000E+00  1.00000000E+00  0.00000000E+00
  0.00000000E+00
Virial Ratio                               R      2.001297009921418E+00
SCF Energy                                 R     -2.307219597080312E+02
MP2 Energy                                 R     -2.315588959026494E+02
Total Energy                               R     -2.315588959026494E+02
Post-SCF wavefunction norm                 R      1.146864773952435E+00
RMS Density                                R      3.692391884498724E-09
Job Status                                 I                1
Nuclear derivative order                   I                0
External E-field                           R   N=          35
  0.00000000E+00  0.00000000E+00  0.00000000E+00  0.00000000E+00  0.00000000E+00
  0.00000000E+00  0.00000000E+00  0.00000000E+00  0.00000000E+00  0.00000000E+00
  0.00000000E+00  0.00000000E+00  0.00000000E+00  0.00000000E+00  0.00000000E+00
  0.00000000E+00  0.00000000E+00  0.00000000E+00  0.00000000E+00  0.00000000E+00
  0.00000000E+00  0.00000000E+00  0.00000000E+00  0.00000000E+00  0.00000000E+00
  0.00000000E+00  0.00000000E+00  0.00000000E+00  0.00000000E+00  0.00000000E+00
  0.00000000E+00  0.00000000E+00  0.00000000E+00  0.00000000E+00  0.00000000E+00
IOpCl                                      I                0
IROHF                                      I                0
Alpha Orbital Energies                     R   N=         174
 -1.12416159E+01 -1.12414016E+01 -1.12406355E+01 -1.12402317E+01 -1.12386208E+01
 -1.12384875E+01 -1.15311959E+00 -1.01684080E+00 -1.01332241E+00 -8.24266972E-01
 -8.19532210E-01 -7.09727454E-01 -6.45649258E-01 -6.10120349E-01 -5.91943697E-01
 -5.82638813E-01 -5.01226700E-01 -4.99736220E-01 -4.90461524E-01 -3.33340192E-01
 -3.30701859E-01  4.20046629E-02  4.93933196E-02  4.95967782E-02  6.74289018E-02
  6.76452174E-02  9.91507715E-02  1.01840097E-01  1.04815081E-01  1.09459441E-01
  1.26046886E-01  1.48090589E-01  1.49176587E-01  1.63138937E-01  1.82915581E-01
  1.84768297E-01  1.85897133E-01  1.86332413E-01  1.91659303E-01  2.11246359E-01
  2.11630565E-01  2.12476088E-01  2.13592554E-01  2.14278487E-01  2.17245203E-01
  2.18918939E-01  2.24714724E-01  2.43809529E-01  2.54790029E-01  2.62160238E-01
  2.62728093E-01  2.89959028E-01  2.90700173E-01  3.18902564E-01  3.44049406E-01
  4.04330653E-01  4.05599151E-01  4.10018910E-01  4.23026979E-01  4.24736907E-01
  4.93681372E-01  4.94248351E-01  5.09911603E-01  5.14046258E-01  5.15212596E-01
  6.06386652E-01  6.15484671E-01  6.32536453E-01  7.28648866E-01  7.40097298E-01
  7.41054631E-01  7.59398676E-01  7.63398342E-01  7.68957923E-01  7.70690894E-01
  7.75415194E-01  8.08826792E-01  8.09083093E-01  8.25811322E-01  8.88088105E-01
  9.23604370E-01  9.25907208E-01  9.43775240E-01  9.48043585E-01  9.74344432E-01
  9.88260544E-01  9.90499964E-01  1.00413656E+00  1.01072905E+00  1.01849864E+00
  1.04423166E+00  1.11677174E+00  1.12061180E+00  1.12546041E+00  1.17616429E+00
  1.18487120E+00  1.34457989E+00  1.37485051E+00  1.37888574E+00  1.39301106E+00
  1.39917744E+00  1.54042311E+00  1.60434532E+00  1.71224129E+00  1.77892485E+00
  1.79302377E+00  1.81400921E+00  1.83819831E+00  1.84282876E+00  1.84630354E+00
  1.89511716E+00  1.90653730E+00  1.93398497E+00  1.94652345E+00  1.97997113E+00
  2.03975305E+00  2.04445026E+00  2.05161716E+00  2.09668454E+00  2.11361666E+00
  2.13066511E+00  2.15517140E+00  2.17189141E+00  2.30504267E+00  2.30531537E+00
  2.31827066E+00  2.34762232E+00  2.35409491E+00  2.39376890E+00  2.40192650E+00
  2.53406587E+00  2.57746072E+00  2.61586337E+00  2.76763958E+00  2.77280412E+00
  2.81192406E+00  2.82661633E+00  2.83681252E+00  2.94214299E+00  2.95964166E+00
  2.96641087E+00  3.00557326E+00  3.02141923E+00  3.02590989E+00  3.04548643E+00
  3.04746030E+00  3.10672723E+00  3.12064778E+00  3.18476341E+00  3.18906932E+00
  3.33340211E+00  3.33957335E+00  3.34108675E+00  3.35601100E+00  3.46637132E+00
  3.52826401E+00  3.76281938E+00  3.76477793E+00  3.84462492E+00  3.89394021E+00
  3.89456819E+00  3.93293476E+00  4.41449764E+00  4.42501319E+00  4.42650550E+00
  4.62625252E+00  4.63828910E+00  4.90252589E+00  2.47621683E+01  2.51102244E+01
  2.51141803E+01  2.52452235E+01  2.52546183E+01  2.52636634E+01
Alpha MO coefficients                      R   N=       30276
  1.13534124E-01  9.39646591E-02 -5.99354546E-05 -9.52549877E-15 -3.08727542E-05
  1.18778377E-03 -1.74108507E-04 -2.19433926E-14 -2.72417642E-05 -2.63499332E-04
 -2.89930750E-05 -4.78286494E-14  1.34170303E-04 -1.28585844E-03  2.71080041E-04
  1.07004143E-12 -5.00788936E-04 -2.41579938E-05  1.00406909E-06  2.55633009E-15
 -6.37599889E-05  7.56819150E-15  2.69918931E-01  2.23503844E-01 -3.50798267E-05
  2.95706763E-05  5.86757397E-05  2.26040686E-03 -1.44796596E-04 -1.61893515E-04
  3.82685398E-05 -4.50602058E-04  4.19290306E-05  5.39250275E-05 -1.31929651E-04
  5.08962845E-04 -2.00603932E-04 -3.92559770E-04  5.38287329E-04 -1.52679527E-04
 -2.46320967E-06 -1.33961452E-05  4.32749390E-05 -4.60996099E-05  2.69918931E-01
  2.23503844E-01  3.50798267E-05  2.95706763E-05 -5.86757397E-05  2.26040686E-03
  1.44796596E-04 -1.61893515E-04 -3.82685398E-05 -4.50602059E-04 -4.19290307E-05
  5.39250274E-05  1.31929651E-04  5.08962866E-04  2.00603936E-04 -3.92559774E-04
 -5.38287330E-04 -1.52679527E-04 -2.46320966E-06  1.33961452E-05  4.32749390E-05
  4.60996099E-05  1.13534124E-01  9.39646591E-02  5.99354546E-05 -1.68467310E-14
  3.08727542E-05  1.18778377E-03  1.74108507E-04 -3.63661981E-15  2.72417642E-05
 -2.63499331E-04  2.89930752E-05 -7.72663569E-16 -1.34170303E-04 -1.28585844E-03
 -2.71080042E-04 -8.52032373E-13  5.00788936E-04 -2.41579938E-05  1.00406910E-06
  2.53450366E-15 -6.37599889E-05 -6.18193318E-15  2.69918931E-01  2.23503844E-01
  3.50798267E-05 -2.95706763E-05 -5.86757397E-05  2.26040686E-03  1.44796596E-04
  1.61893515E-04 -3.82685398E-05 -4.50602059E-04 -4.19290308E-05 -5.39250276E-05
  1.31929651E-04  5.08962853E-04  2.00603934E-04  3.92559770E-04 -5.38287330E-04
 -1.52679527E-04 -2.46320966E-06 -1.33961452E-05  4.32749390E-05 -4.60996099E-05
  2.69918931E-01  2.23503844E-01 -3.50798267E-05 -2.95706763E-05  5.86757397E-05
  2.26040686E-03 -1.44796596E-04  1.61893515E-04  3.82685398E-05 -4.50602059E-04
  4.19290304E-05 -5.39250273E-05 -1.31929651E-04  5.08962859E-04 -2.00603934E-04
  3.92559774E-04  5.38287330E-04 -1.52679527E-04 -2.46320967E-06  1.33961452E-05
  4.32749390E-05  4.60996099E-05  8.68133181E-05  6.89835307E-05  5.37793757E-05
 -4.40012585E-05 -4.26193588E-05  1.34844848E-15 -7.83545371E-06  1.99027481E-04
  5.73141198E-06  1.67311487E-04  2.10008989E-04 -2.31640754E-05 -3.15235703E-05
  1.01843632E-05  1.99027481E-04  5.73141211E-06  1.67311487E-04  2.10008991E-04
  2.31640754E-05 -3.15235703E-05 -1.01843632E-05  8.68133181E-05  6.89835308E-05
  5.37793756E-05 -4.40012588E-05  4.26193588E-05 -4.75390108E-15  7.83545371E-06
  1.99027481E-04  5.73141202E-06  1.67311487E-04  2.10008989E-04  2.31640754E-05
  3.15235703E-05 -1.01843632E-05  1.99027481E-04  5.73141204E-06  1.67311488E-04
  2.10008991E-04 -2.31640754E-05  3.15235703E-05  1.01843632E-05  6.33159692E-12
  5.23895974E-12 -5.48846263E-15  1.84064529E-04 -9.80904937E-16  5.24416728E-14
 -9.05906536E-15  1.46972730E-04 -6.92673941E-15  1.58419154E-13  3.72749414E-15
  2.44100659E-05  1.29017284E-14 -5.53512785E-12  1.30608720E-12 -3.28113540E-04
  2.13865792E-13 -8.03056668E-15  2.19454889E-16  1.06441007E-05 -5.06410268E-15
 -1.02827171E-04  2.81629610E-01  2.33217388E-01 -6.85510302E-05  5.04119691E-05
  6.65444805E-05  2.27323860E-03 -1.33706053E-04 -8.16196971E-05  1.27729401E-05
 -4.96332797E-04 -1.54858505E-05 -3.20996666E-06 -1.97600329E-05  1.05860037E-03
 -3.16578401E-04 -8.34381072E-04  5.48070730E-05 -1.60379429E-04 -2.04025693E-06
 -1.49212507E-05  8.06213908E-05 -3.95505898E-05  2.81629610E-01  2.33217388E-01
  6.85510302E-05  5.04119691E-05 -6.65444805E-05  2.27323860E-03  1.33706053E-04
 -8.16196971E-05 -1.27729401E-05 -4.96332797E-04  1.54858506E-05 -3.20996678E-06
  1.97600329E-05  1.05860038E-03  3.16578404E-04 -8.34381075E-04 -5.48070734E-05
 -1.60379429E-04 -2.04025693E-06  1.49212507E-05  8.06213908E-05  3.95505898E-05
  5.71958958E-12  4.73457430E-12  1.51595279E-15  1.84064529E-04 -6.18248629E-16
  4.00190006E-14  1.78829318E-14  1.46972730E-04  8.44071699E-15  1.91878218E-13
 -1.42102577E-14  2.44100659E-05 -1.36052009E-14 -3.80280071E-12 -1.58305898E-12
 -3.28113541E-04 -1.17408066E-14 -9.52000156E-15  1.38150588E-15 -1.06441007E-05