 Entering Gaussian System, Link 0=g16
 Initial command:
 /sw/cluster/pub/apps//g16/l1.exe "/data/mmaximo/31245/Gau-2618.inp" -scrdir="/data/mmaximo/31245/"
 Entering Link 1 = /sw/cluster/pub/apps//g16/l1.exe PID=      2620.
  
 Copyright (c) 1988,1990,1992,1993,1995,1998,2003,2009,2016,
            Gaussian, Inc.  All Rights Reserved.
  
 This is part of the Gaussian(R) 16 program.  It is based on
 the Gaussian(R) 09 system (copyright 2009, Gaussian, Inc.),
 the Gaussian(R) 03 system (copyright 2003, Gaussian, Inc.),
 the Gaussian(R) 98 system (copyright 1998, Gaussian, Inc.),
 the Gaussian(R) 94 system (copyright 1995, Gaussian, Inc.),
 the Gaussian 92(TM) system (copyright 1992, Gaussian, Inc.),
 the Gaussian 90(TM) system (copyright 1990, Gaussian, Inc.),
 the Gaussian 88(TM) system (copyright 1988, Gaussian, Inc.),
 the Gaussian 86(TM) system (copyright 1986, Carnegie Mellon
 University), and the Gaussian 82(TM) system (copyright 1983,
 Carnegie Mellon University). Gaussian is a federally registered
 trademark of Gaussian, Inc.
  
 This software contains proprietary and confidential information,
 including trade secrets, belonging to Gaussian, Inc.
  
 This software is provided under written license and may be
 used, copied, transmitted, or stored only in accord with that
 written license.
  
 The following legend is applicable only to US Government
 contracts under FAR:
  
                    RESTRICTED RIGHTS LEGEND
  
 Use, reproduction and disclosure by the US Government is
 subject to restrictions as set forth in subparagraphs (a)
 and (c) of the Commercial Computer Software - Restricted
 Rights clause in FAR 52.227-19.
  
 Gaussian, Inc.
 340 Quinnipiac St., Bldg. 40, Wallingford CT 06492
  
  
 ---------------------------------------------------------------
 Warning -- This program may not be used in any manner that
 competes with the business of Gaussian, Inc. or will provide
 assistance to any competitor of Gaussian, Inc.  The licensee
 of this program is prohibited from giving any competitor of
 Gaussian, Inc. access to this program.  By using this program,
 the user acknowledges that Gaussian, Inc. is engaged in the
 business of creating and licensing software in the field of
 computational chemistry and represents and warrants to the
 licensee that it is not a competitor of Gaussian, Inc. and that
 it will not use this program in any manner prohibited above.
 ---------------------------------------------------------------
  

 Cite this work as:
 Gaussian 16, Revision A.03,
 M. J. Frisch, G. W. Trucks, H. B. Schlegel, G. E. Scuseria, 
 M. A. Robb, J. R. Cheeseman, G. Scalmani, V. Barone, 
 G. A. Petersson, H. Nakatsuji, X. Li, M. Caricato, A. V. Marenich, 
 J. Bloino, B. G. Janesko, R. Gomperts, B. Mennucci, H. P. Hratchian, 
 J. V. Ortiz, A. F. Izmaylov, J. L. Sonnenberg, D. Williams-Young, 
 F. Ding, F. Lipparini, F. Egidi, J. Goings, B. Peng, A. Petrone, 
 T. Henderson, D. Ranasinghe, V. G. Zakrzewski, J. Gao, N. Rega, 
 G. Zheng, W. Liang, M. Hada, M. Ehara, K. Toyota, R. Fukuda, 
 J. Hasegawa, M. Ishida, T. Nakajima, Y. Honda, O. Kitao, H. Nakai, 
 T. Vreven, K. Throssell, J. A. Montgomery, Jr., J. E. Peralta, 
 F. Ogliaro, M. J. Bearpark, J. J. Heyd, E. N. Brothers, K. N. Kudin, 
 V. N. Staroverov, T. A. Keith, R. Kobayashi, J. Normand, 
 K. Raghavachari, A. P. Rendell, J. C. Burant, S. S. Iyengar, 
 J. Tomasi, M. Cossi, J. M. Millam, M. Klene, C. Adamo, R. Cammi, 
 J. W. Ochterski, R. L. Martin, K. Morokuma, O. Farkas, 
 J. B. Foresman, and D. J. Fox, Gaussian, Inc., Wallingford CT, 2016.
 
 ******************************************
 Gaussian 16:  ES64L-G16RevA.03 25-Dec-2016
                12-Feb-2025 
 ******************************************
 %chk=chair-25.chk
 ------------------------------------
 #P MP2/6-311++G** nosymm Density=MP2
 ------------------------------------
 1/30=1,38=1,172=1/1;
 2/12=2,15=1,17=6,18=5,40=1/2;
 3/5=4,6=6,7=1111,11=9,25=1,30=1,71=1/1,2,3;
 4//1;
 5/5=2,38=5/2;
 8/6=4,10=2/1;
 9/15=1,16=-3/6;
 10/5=1,13=10,31=1/2;
 6/7=2,8=2,9=2,10=2,22=2/1;
 99/5=1,9=1/99;
 Leave Link    1 at Wed Feb 12 16:23:00 2025, MaxMem=           0 cpu:               0.0 elap:               0.0
 (Enter /sw/cluster/pub/apps//g16/l101.exe)
 --------
 Chair-25
 --------
 Symbolic Z-matrix:
 Charge =  0 Multiplicity = 1
 C                     1.36328   0.        0.10064 
 C                     0.69476   1.21416  -0.10064 
 C                    -0.69476   1.21416   0.10064 
 C                    -1.36328   0.       -0.10064 
 C                    -0.69476  -1.21416   0.10064 
 C                     0.69476  -1.21416  -0.10064 
 H                     2.45039   0.        0.08793 
 H                     1.25211   2.14528  -0.07982 
 H                    -1.25211   2.14528   0.07982 
 H                    -2.45039   0.       -0.08793 
 H                    -1.25211  -2.14528   0.07982 
 H                     1.25211  -2.14528  -0.07982 
 
 ITRead=  0  0  0  0  0  0  0  0  0  0  0  0
 MicOpt= -1 -1 -1 -1 -1 -1 -1 -1 -1 -1 -1 -1
 NAtoms=     12 NQM=       12 NQMF=       0 NMMI=      0 NMMIF=      0
                NMic=       0 NMicF=      0.
                    Isotopes and Nuclear Properties:
 (Nuclear quadrupole moments (NQMom) in fm**2, nuclear magnetic moments (NMagM)
  in nuclear magnetons)

  Atom         1           2           3           4           5           6           7           8           9          10
 IAtWgt=          12          12          12          12          12          12           1           1           1           1
 AtmWgt=  12.0000000  12.0000000  12.0000000  12.0000000  12.0000000  12.0000000   1.0078250   1.0078250   1.0078250   1.0078250
 NucSpn=           0           0           0           0           0           0           1           1           1           1
 AtZEff=  -0.0000000  -0.0000000  -0.0000000  -0.0000000  -0.0000000  -0.0000000  -0.0000000  -0.0000000  -0.0000000  -0.0000000
 NQMom=    0.0000000   0.0000000   0.0000000   0.0000000   0.0000000   0.0000000   0.0000000   0.0000000   0.0000000   0.0000000
 NMagM=    0.0000000   0.0000000   0.0000000   0.0000000   0.0000000   0.0000000   2.7928460   2.7928460   2.7928460   2.7928460
 AtZNuc=   6.0000000   6.0000000   6.0000000   6.0000000   6.0000000   6.0000000   1.0000000   1.0000000   1.0000000   1.0000000

  Atom        11          12
 IAtWgt=           1           1
 AtmWgt=   1.0078250   1.0078250
 NucSpn=           1           1
 AtZEff=  -0.0000000  -0.0000000
 NQMom=    0.0000000   0.0000000
 NMagM=    2.7928460   2.7928460
 AtZNuc=   1.0000000   1.0000000
 Leave Link  101 at Wed Feb 12 16:23:00 2025, MaxMem=   104857600 cpu:               0.0 elap:               0.0
 (Enter /sw/cluster/pub/apps//g16/l202.exe)
                          Input orientation:                          
 ---------------------------------------------------------------------
 Center     Atomic      Atomic             Coordinates (Angstroms)
 Number     Number       Type             X           Y           Z
 ---------------------------------------------------------------------
      1          6           0        1.363277    0.000000    0.100642
      2          6           0        0.694758    1.214164   -0.100642
      3          6           0       -0.694758    1.214164    0.100642
      4          6           0       -1.363277    0.000000   -0.100642
      5          6           0       -0.694758   -1.214164    0.100642
      6          6           0        0.694758   -1.214164   -0.100642
      7          1           0        2.450393    0.000000    0.087930
      8          1           0        1.252113    2.145278   -0.079819
      9          1           0       -1.252113    2.145278    0.079819
     10          1           0       -2.450393    0.000000   -0.087930
     11          1           0       -1.252113   -2.145278    0.079819
     12          1           0        1.252113   -2.145278   -0.079819
 ---------------------------------------------------------------------
                    Distance matrix (angstroms):
                    1          2          3          4          5
     1  C    0.000000
     2  C    1.400581   0.000000
     3  C    2.389499   1.404019   0.000000
     4  C    2.733974   2.389499   1.400581   0.000000
     5  C    2.389499   2.805004   2.428328   1.400581   0.000000
     6  C    1.400581   2.428328   2.805004   2.389499   1.404019
     7  H    1.087190   2.142897   3.371399   3.818329   3.371399
     8  H    2.155723   1.085381   2.165605   3.382738   3.886994
     9  H    3.382738   2.165605   1.085381   2.155723   3.405427
    10  H    3.818329   3.371399   2.142897   1.087190   2.142897
    11  H    3.382738   3.886994   3.405427   2.155723   1.085381
    12  H    2.155723   3.405427   3.886994   3.382738   2.165605
                    6          7          8          9         10
     6  C    0.000000
     7  H    2.142897   0.000000
     8  H    3.405427   2.462972   0.000000
     9  H    3.886994   4.279116   2.509309   0.000000
    10  H    3.371399   4.903940   4.279116   2.462972   0.000000
    11  H    2.165605   4.279116   4.970463   4.290556   2.462972
    12  H    1.085381   2.462972   4.290556   4.970463   4.279116
                   11         12
    11  H    0.000000
    12  H    2.509309   0.000000
 Symmetry turned off by external request.
 Stoichiometry    C6H6
 Framework group  C2H[SGH(C2H2),X(C4H4)]
 Deg. of freedom     9
 Full point group                 C2H     NOp   4
 Rotational constants (GHZ):           5.8111424           5.6100374           2.8794725
 Leave Link  202 at Wed Feb 12 16:23:00 2025, MaxMem=   104857600 cpu:               0.0 elap:               0.0
 (Enter /sw/cluster/pub/apps//g16/l301.exe)
 Standard basis: 6-311++G(d,p) (5D, 7F)
 Ernie: Thresh=  0.10000D-02 Tol=  0.10000D-05 Strict=F.
   174 basis functions,   270 primitive gaussians,   180 cartesian basis functions
    21 alpha electrons       21 beta electrons
       nuclear repulsion energy       203.4248038597 Hartrees.
 IExCor=    0 DFT=F Ex=HF Corr=None ExCW=0 ScaHFX=  1.000000
 ScaDFX=  1.000000  1.000000  1.000000  1.000000 ScalE2=  1.000000  1.000000
 IRadAn=      5 IRanWt=     -1 IRanGd=            0 ICorTp=0 IEmpDi=  4
 NAtoms=   12 NActive=   12 NUniq=   12 SFac= 1.00D+00 NAtFMM=   60 NAOKFM=F Big=F
 Integral buffers will be    131072 words long.
 Raffenetti 1 integral format.
 Two-electron integral symmetry is turned off.
 Leave Link  301 at Wed Feb 12 16:23:00 2025, MaxMem=   104857600 cpu:               0.0 elap:               0.0
 (Enter /sw/cluster/pub/apps//g16/l302.exe)
 NPDir=0 NMtPBC=     1 NCelOv=     1 NCel=       1 NClECP=     1 NCelD=      1
         NCelK=      1 NCelE2=     1 NClLst=     1 CellRange=     0.0.
 One-electron integrals computed using PRISM.
 NBasis=   174 RedAO= T EigKep=  2.84D-05  NBF=   174
 NBsUse=   174 1.00D-06 EigRej= -1.00D+00 NBFU=   174
 Leave Link  302 at Wed Feb 12 16:23:00 2025, MaxMem=   104857600 cpu:               0.0 elap:               0.1
 (Enter /sw/cluster/pub/apps//g16/l303.exe)
 DipDrv:  MaxL=1.
 Leave Link  303 at Wed Feb 12 16:23:00 2025, MaxMem=   104857600 cpu:               0.0 elap:               0.0
 (Enter /sw/cluster/pub/apps//g16/l401.exe)
 ExpMin= 3.60D-02 ExpMax= 4.56D+03 ExpMxC= 6.82D+02 IAcc=3 IRadAn=         5 AccDes= 0.00D+00
 Harris functional with IExCor=  205 and IRadAn=       5 diagonalized for initial guess.
 HarFok:  IExCor=  205 AccDes= 0.00D+00 IRadAn=         5 IDoV= 1 UseB2=F ITyADJ=14
 ICtDFT=  3500011 ScaDFX=  1.000000  1.000000  1.000000  1.000000
 FoFCou: FMM=F IPFlag=           0 FMFlag=      100000 FMFlg1=           0
         NFxFlg=           0 DoJE=T BraDBF=F KetDBF=T FulRan=T
         wScrn=  0.000000 ICntrl=       500 IOpCl=  0 I1Cent=   200000004 NGrid=           0
         NMat0=    1 NMatS0=      1 NMatT0=    0 NMatD0=    1 NMtDS0=    0 NMtDT0=    0
 Symmetry not used in FoFCou.
 Harris En= -231.111744094660    
 JPrj=0 DoOrth=F DoCkMO=F.
 Leave Link  401 at Wed Feb 12 16:23:01 2025, MaxMem=   104857600 cpu:               0.7 elap:               0.7
 (Enter /sw/cluster/pub/apps//g16/l502.exe)
 Two-electron integral symmetry not used.
 Closed shell SCF:
 Using DIIS extrapolation, IDIIS=  1040.
 NGot=   104857600 LenX=   104790300 LenY=   104757459
 Requested convergence on RMS density matrix=1.00D-08 within 128 cycles.
 Requested convergence on MAX density matrix=1.00D-06.
 Requested convergence on             energy=1.00D-06.
 No special actions if energy rises.
 Fock matrices will be formed incrementally for  20 cycles.

 Cycle   1  Pass 0  IDiag  1:
 FoFJK:  IHMeth= 1 ICntrl=       0 DoSepK=F KAlg= 0 I1Cent=           0 FoldK=F
 IRaf= 990000000 NMat=       1 IRICut=       1 DoRegI=T DoRafI=F ISym2E= 0 IDoP0=0 IntGTp=1.
 FoFCou: FMM=F IPFlag=           0 FMFlag=      100000 FMFlg1=           0
         NFxFlg=           0 DoJE=F BraDBF=F KetDBF=F FulRan=T
         wScrn=  0.000000 ICntrl=         0 IOpCl=  0 I1Cent=           0 NGrid=           0
         NMat0=    1 NMatS0=      1 NMatT0=    0 NMatD0=    1 NMtDS0=    0 NMtDT0=    0
 Symmetry not used in FoFCou.
 E= -230.432630976648    
 DIIS: error= 6.51D-02 at cycle   1 NSaved=   1.
 NSaved= 1 IEnMin= 1 EnMin= -230.432630976648     IErMin= 1 ErrMin= 6.51D-02
 ErrMax= 6.51D-02  0.00D+00 EMaxC= 1.00D-01 BMatC= 4.98D-01 BMatP= 4.98D-01
 IDIUse=3 WtCom= 3.49D-01 WtEn= 6.51D-01
 Coeff-Com:  0.100D+01
 Coeff-En:   0.100D+01
 Coeff:      0.100D+01
 Gap=     0.461 Goal=   None    Shift=    0.000
 GapD=    0.461 DampG=2.000 DampE=0.500 DampFc=1.0000 IDamp=-1.
 RMSDP=8.72D-03 MaxDP=2.68D-01              OVMax= 1.57D-01

 Cycle   2  Pass 0  IDiag  1:
 RMSU=  8.32D-03    CP:  1.12D+00
 E= -230.674766668128     Delta-E=       -0.242135691480 Rises=F Damp=F
 DIIS: error= 3.12D-02 at cycle   2 NSaved=   2.
 NSaved= 2 IEnMin= 2 EnMin= -230.674766668128     IErMin= 2 ErrMin= 3.12D-02
 ErrMax= 3.12D-02  0.00D+00 EMaxC= 1.00D-01 BMatC= 4.78D-02 BMatP= 4.98D-01
 IDIUse=3 WtCom= 6.88D-01 WtEn= 3.12D-01
 Coeff-Com:  0.157D+00 0.843D+00
 Coeff-En:   0.000D+00 0.100D+01
 Coeff:      0.108D+00 0.892D+00
 Gap=     0.413 Goal=   None    Shift=    0.000
 RMSDP=1.16D-02 MaxDP=4.11D-01 DE=-2.42D-01 OVMax= 5.98D-02

 Cycle   3  Pass 0  IDiag  1:
 RMSU=  3.88D-03    CP:  8.58D-01 -1.26D-01
 E= -230.715932129544     Delta-E=       -0.041165461415 Rises=F Damp=F
 DIIS: error= 8.46D-03 at cycle   3 NSaved=   3.
 NSaved= 3 IEnMin= 3 EnMin= -230.715932129544     IErMin= 3 ErrMin= 8.46D-03
 ErrMax= 8.46D-03  0.00D+00 EMaxC= 1.00D-01 BMatC= 6.16D-03 BMatP= 4.78D-02
 IDIUse=3 WtCom= 9.15D-01 WtEn= 8.46D-02
 Coeff-Com: -0.196D-01 0.238D+00 0.782D+00
 Coeff-En:   0.000D+00 0.000D+00 0.100D+01
 Coeff:     -0.180D-01 0.218D+00 0.800D+00
 Gap=     0.371 Goal=   None    Shift=    0.000
 RMSDP=1.98D-03 MaxDP=6.95D-02 DE=-4.12D-02 OVMax= 1.64D-02

 Cycle   4  Pass 0  IDiag  1:
 RMSU=  8.33D-04    CP:  8.66D-01  8.06D-02  8.72D-01
 E= -230.721889822843     Delta-E=       -0.005957693300 Rises=F Damp=F
 DIIS: error= 1.42D-03 at cycle   4 NSaved=   4.
 NSaved= 4 IEnMin= 4 EnMin= -230.721889822843     IErMin= 4 ErrMin= 1.42D-03
 ErrMax= 1.42D-03  0.00D+00 EMaxC= 1.00D-01 BMatC= 4.23D-05 BMatP= 6.16D-03
 IDIUse=3 WtCom= 9.86D-01 WtEn= 1.42D-02
 Coeff-Com: -0.195D-02-0.163D-01 0.133D-01 0.100D+01
 Coeff-En:   0.000D+00 0.000D+00 0.000D+00 0.100D+01
 Coeff:     -0.192D-02-0.161D-01 0.131D-01 0.100D+01
 Gap=     0.373 Goal=   None    Shift=    0.000
 RMSDP=3.60D-04 MaxDP=1.10D-02 DE=-5.96D-03 OVMax= 2.20D-03

 Cycle   5  Pass 0  IDiag  1:
 RMSU=  9.84D-05    CP:  8.56D-01  5.09D-02  9.01D-01  1.05D+00
 E= -230.721954200298     Delta-E=       -0.000064377455 Rises=F Damp=F
 DIIS: error= 2.38D-04 at cycle   5 NSaved=   5.
 NSaved= 5 IEnMin= 5 EnMin= -230.721954200298     IErMin= 5 ErrMin= 2.38D-04
 ErrMax= 2.38D-04  0.00D+00 EMaxC= 1.00D-01 BMatC= 2.57D-06 BMatP= 4.23D-05
 IDIUse=3 WtCom= 9.98D-01 WtEn= 2.38D-03
 Coeff-Com:  0.110D-02-0.103D-01-0.413D-01-0.126D+00 0.118D+01
 Coeff-En:   0.000D+00 0.000D+00 0.000D+00 0.000D+00 0.100D+01
 Coeff:      0.109D-02-0.103D-01-0.412D-01-0.125D+00 0.118D+01
 Gap=     0.373 Goal=   None    Shift=    0.000
 RMSDP=9.88D-05 MaxDP=3.91D-03 DE=-6.44D-05 OVMax= 6.64D-04

 Cycle   6  Pass 0  IDiag  1:
 RMSU=  1.40D-05    CP:  8.53D-01  4.71D-02  9.03D-01  1.10D+00  1.44D+00
 E= -230.721959417765     Delta-E=       -0.000005217467 Rises=F Damp=F
 DIIS: error= 3.57D-05 at cycle   6 NSaved=   6.
 NSaved= 6 IEnMin= 6 EnMin= -230.721959417765     IErMin= 6 ErrMin= 3.57D-05
 ErrMax= 3.57D-05  0.00D+00 EMaxC= 1.00D-01 BMatC= 1.87D-07 BMatP= 2.57D-06
 IDIUse=1 WtCom= 1.00D+00 WtEn= 0.00D+00
 Coeff-Com:  0.366D-03-0.238D-02-0.113D-01-0.620D-01 0.287D+00 0.789D+00
 Coeff:      0.366D-03-0.238D-02-0.113D-01-0.620D-01 0.287D+00 0.789D+00
 Gap=     0.373 Goal=   None    Shift=    0.000
 RMSDP=1.16D-05 MaxDP=4.49D-04 DE=-5.22D-06 OVMax= 1.33D-04

 Cycle   7  Pass 0  IDiag  1:
 RMSU=  3.96D-06    CP:  8.52D-01  4.68D-02  9.03D-01  1.11D+00  1.51D+00
                    CP:  1.08D+00
 E= -230.721959668348     Delta-E=       -0.000000250583 Rises=F Damp=F
 DIIS: error= 1.38D-05 at cycle   7 NSaved=   7.
 NSaved= 7 IEnMin= 7 EnMin= -230.721959668348     IErMin= 7 ErrMin= 1.38D-05
 ErrMax= 1.38D-05  0.00D+00 EMaxC= 1.00D-01 BMatC= 1.30D-08 BMatP= 1.87D-07
 IDIUse=1 WtCom= 1.00D+00 WtEn= 0.00D+00
 Coeff-Com: -0.119D-03 0.108D-02 0.470D-02 0.181D-01-0.140D+00-0.556D-01
 Coeff-Com:  0.117D+01
 Coeff:     -0.119D-03 0.108D-02 0.470D-02 0.181D-01-0.140D+00-0.556D-01
 Coeff:      0.117D+01
 Gap=     0.373 Goal=   None    Shift=    0.000
 RMSDP=5.59D-06 MaxDP=1.97D-04 DE=-2.51D-07 OVMax= 7.81D-05

 Initial convergence to 1.0D-05 achieved.  Increase integral accuracy.
 Cycle   8  Pass 1  IDiag  1:
 E= -230.721959704859     Delta-E=       -0.000000036512 Rises=F Damp=F
 DIIS: error= 4.17D-06 at cycle   1 NSaved=   1.
 NSaved= 1 IEnMin= 1 EnMin= -230.721959704859     IErMin= 1 ErrMin= 4.17D-06
 ErrMax= 4.17D-06  0.00D+00 EMaxC= 1.00D-01 BMatC= 8.35D-10 BMatP= 8.35D-10
 IDIUse=1 WtCom= 1.00D+00 WtEn= 0.00D+00
 Coeff-Com:  0.100D+01
 Coeff:      0.100D+01
 Gap=     0.373 Goal=   None    Shift=    0.000
 RMSDP=5.59D-06 MaxDP=1.97D-04 DE=-3.65D-08 OVMax= 1.77D-05

 Cycle   9  Pass 1  IDiag  1:
 RMSU=  9.57D-07    CP:  1.00D+00
 E= -230.721959707299     Delta-E=       -0.000000002439 Rises=F Damp=F
 DIIS: error= 2.24D-06 at cycle   2 NSaved=   2.
 NSaved= 2 IEnMin= 2 EnMin= -230.721959707299     IErMin= 2 ErrMin= 2.24D-06
 ErrMax= 2.24D-06  0.00D+00 EMaxC= 1.00D-01 BMatC= 1.87D-10 BMatP= 8.35D-10
 IDIUse=1 WtCom= 1.00D+00 WtEn= 0.00D+00
 Coeff-Com: -0.574D+00 0.157D+01
 Coeff:     -0.574D+00 0.157D+01
 Gap=     0.373 Goal=   None    Shift=    0.000
 RMSDP=1.02D-06 MaxDP=3.35D-05 DE=-2.44D-09 OVMax= 1.36D-05

 Cycle  10  Pass 1  IDiag  1:
 RMSU=  2.00D-07    CP:  1.00D+00  1.87D+00
 E= -230.721959707991     Delta-E=       -0.000000000692 Rises=F Damp=F
 DIIS: error= 6.01D-07 at cycle   3 NSaved=   3.
 NSaved= 3 IEnMin= 3 EnMin= -230.721959707991     IErMin= 3 ErrMin= 6.01D-07
 ErrMax= 6.01D-07  0.00D+00 EMaxC= 1.00D-01 BMatC= 2.39D-11 BMatP= 1.87D-10
 IDIUse=1 WtCom= 1.00D+00 WtEn= 0.00D+00
 Coeff-Com: -0.297D+00 0.491D+00 0.806D+00
 Coeff:     -0.297D+00 0.491D+00 0.806D+00
 Gap=     0.373 Goal=   None    Shift=    0.000
 RMSDP=1.50D-07 MaxDP=5.77D-06 DE=-6.92D-10 OVMax= 3.01D-06

 Cycle  11  Pass 1  IDiag  1:
 RMSU=  8.45D-08    CP:  1.00D+00  1.95D+00  8.50D-01
 E= -230.721959708032     Delta-E=       -0.000000000041 Rises=F Damp=F
 DIIS: error= 7.72D-08 at cycle   4 NSaved=   4.
 NSaved= 4 IEnMin= 4 EnMin= -230.721959708032     IErMin= 4 ErrMin= 7.72D-08
 ErrMax= 7.72D-08  0.00D+00 EMaxC= 1.00D-01 BMatC= 2.76D-13 BMatP= 2.39D-11
 IDIUse=1 WtCom= 1.00D+00 WtEn= 0.00D+00
 Coeff-Com:  0.993D-01-0.181D+00-0.234D+00 0.132D+01
 Coeff:      0.993D-01-0.181D+00-0.234D+00 0.132D+01
 Gap=     0.373 Goal=   None    Shift=    0.000
 RMSDP=3.62D-08 MaxDP=1.08D-06 DE=-4.10D-11 OVMax= 3.25D-07

 Cycle  12  Pass 1  IDiag  1:
 RMSU=  6.88D-09    CP:  1.00D+00  1.95D+00  8.93D-01  1.37D+00
 E= -230.721959708031     Delta-E=        0.000000000001 Rises=F Damp=F
 DIIS: error= 1.45D-08 at cycle   5 NSaved=   5.
 NSaved= 5 IEnMin= 4 EnMin= -230.721959708032     IErMin= 5 ErrMin= 1.45D-08
 ErrMax= 1.45D-08  0.00D+00 EMaxC= 1.00D-01 BMatC= 9.97D-15 BMatP= 2.76D-13
 IDIUse=1 WtCom= 1.00D+00 WtEn= 0.00D+00
 Coeff-Com:  0.192D-01-0.339D-01-0.472D-01 0.162D+00 0.900D+00
 Coeff:      0.192D-01-0.339D-01-0.472D-01 0.162D+00 0.900D+00
 Gap=     0.373 Goal=   None    Shift=    0.000
 RMSDP=3.69D-09 MaxDP=1.19D-07 DE= 9.66D-13 OVMax= 3.54D-08

 SCF Done:  E(RHF) =  -230.721959708     A.U. after   12 cycles
            NFock= 12  Conv=0.37D-08     -V/T= 2.0013
 KE= 2.304230986629D+02 PE=-9.435893834665D+02 EE= 2.790195212359D+02
 Leave Link  502 at Wed Feb 12 16:23:10 2025, MaxMem=   104857600 cpu:               8.8 elap:               8.8
 (Enter /sw/cluster/pub/apps//g16/l801.exe)
 ExpMin= 3.60D-02 ExpMax= 4.56D+03 ExpMxC= 6.82D+02 IAcc=3 IRadAn=         5 AccDes= 0.00D+00
 HarFok:  IExCor=  205 AccDes= 0.00D+00 IRadAn=         5 IDoV=-2 UseB2=F ITyADJ=14
 ICtDFT= 12500011 ScaDFX=  1.000000  1.000000  1.000000  1.000000
 Largest valence mixing into a core orbital is  1.37D-04
 Largest core mixing into a valence orbital is  3.76D-05
 Range of M.O.s used for correlation:     7   174
 NBasis=   174 NAE=    21 NBE=    21 NFC=     6 NFV=     0
 NROrb=    168 NOA=    15 NOB=    15 NVA=   153 NVB=   153

 **** Warning!!: The largest alpha MO coefficient is  0.70337643D+02

 Leave Link  801 at Wed Feb 12 16:23:10 2025, MaxMem=   104857600 cpu:               0.2 elap:               0.2
 (Enter /sw/cluster/pub/apps//g16/l906.exe)
 Frozen-core derivative calculation, NFC=   6 NFV=   0.
 FulOut=F Deriv=T AODrv=F NAtomX=    12
   MMem=          34  MDisk=          15 MDiskD=          15
  W3Min=      657720 MinDsk=     1009670 NBas6D=         180
 NBas2D=       16542    NTT=       16290    LW2=     2040000
    MDV=   104495799 MDiskM=        7908 NBas2p=       16458
 Fully direct method using O(ONN) memory.
 IMap=   1   2   3   4   5   6   7   8   9  10  11  12  13  14  15  16  17  18  19  20
 IMap=  21
 JobTyp=1 Pass  1:  I=   7 to  21 NPSUse=  1 ParTrn=F ParDer=F DoDerP=T.
 Spin components of T(2) and E(2):
     alpha-alpha T2 =       0.4320820967D-01 E2=     -0.1088386598D+00
     alpha-beta  T2 =       0.2288823904D+00 E2=     -0.6192588749D+00
     beta-beta   T2 =       0.4320820967D-01 E2=     -0.1088386598D+00
 The integrals were generated   1 times.
 ANorm=    0.1146864774D+01
 E2 =    -0.8369361946D+00 EUMP2 =    -0.23155889590265D+03
 Leave Link  906 at Wed Feb 12 16:23:15 2025, MaxMem=   104857600 cpu:               5.1 elap:               5.1
 (Enter /sw/cluster/pub/apps//g16/l1002.exe)
 Minotr:  Closed shell wavefunction.
          Computing MP2/KS-MP2 derivatives.
          Using Z-Vector for PSCF gradient.
          Skipping F1 and S1 gradient terms here.
          Frozen-core window.
          Direct CPHF calculation.
          Differentiating once with respect to electric field.
                with respect to dipole field.
          Electric field/nuclear overlap derivatives assumed to be zero.
          Requested convergence is 1.0D-10 RMS, and 1.0D-09 maximum.
          NewPWx=F KeepS1=T KeepF1=T KeepIn=T MapXYZ=F SortEE=F KeepMc=T.
 Two-electron integral symmetry not used.
          MDV=     104857600 using IRadAn=       5.
          Solving linear equations separately, MaxMat=     384.
          There are     1 degrees of freedom in the 1st order CPHF.  IDoFFX=0 NUNeed=     1.
 FoFJK:  IHMeth= 1 ICntrl=       0 DoSepK=F KAlg= 0 I1Cent=           0 FoldK=F
 IRaf= 990000000 NMat=       1 IRICut=       1 DoRegI=T DoRafI=F ISym2E= 0 IDoP0=0 IntGTp=1.
 FoFCou: FMM=F IPFlag=           0 FMFlag=      100000 FMFlg1=           0
         NFxFlg=           0 DoJE=F BraDBF=F KetDBF=F FulRan=T
         wScrn=  0.000000 ICntrl=         0 IOpCl=  0 I1Cent=           0 NGrid=           0
         NMat0=    1 NMatS0=      1 NMatT0=    0 NMatD0=    1 NMtDS0=    0 NMtDT0=    0
 Symmetry not used in FoFCou.
 LinEq1:  Iter=  0 NonCon=     1 RMS=3.42D-03 Max=5.68D-02 NDo=     1
 AX will form     1 AO Fock derivatives at one time.
 LinEq1:  Iter=  1 NonCon=     1 RMS=8.31D-04 Max=1.49D-02 NDo=     1
 LinEq1:  Iter=  2 NonCon=     1 RMS=2.39D-04 Max=5.20D-03 NDo=     1
 LinEq1:  Iter=  3 NonCon=     1 RMS=5.06D-05 Max=7.94D-04 NDo=     1
 LinEq1:  Iter=  4 NonCon=     1 RMS=7.92D-06 Max=9.37D-05 NDo=     1
 LinEq1:  Iter=  5 NonCon=     1 RMS=1.79D-06 Max=3.38D-05 NDo=     1
 LinEq1:  Iter=  6 NonCon=     1 RMS=5.47D-07 Max=5.81D-06 NDo=     1
 LinEq1:  Iter=  7 NonCon=     1 RMS=7.18D-08 Max=1.29D-06 NDo=     1
 LinEq1:  Iter=  8 NonCon=     1 RMS=1.07D-08 Max=1.40D-07 NDo=     1
 LinEq1:  Iter=  9 NonCon=     1 RMS=1.47D-09 Max=1.39D-08 NDo=     1
 LinEq1:  Iter= 10 NonCon=     1 RMS=1.60D-10 Max=2.32D-09 NDo=     1
 LinEq1:  Iter= 11 NonCon=     0 RMS=2.87D-11 Max=4.46D-10 NDo=     1
 Linear equations converged to 1.000D-10 1.000D-09 after    11 iterations.
 End of Minotr F.D. properties file   721 does not exist.
 End of Minotr F.D. properties file   722 does not exist.
 End of Minotr F.D. properties file   788 does not exist.
 Leave Link 1002 at Wed Feb 12 16:23:26 2025, MaxMem=   104857600 cpu:              10.8 elap:              10.8
 (Enter /sw/cluster/pub/apps//g16/l601.exe)
 Copying SCF densities to generalized density rwf, IOpCl= 0 IROHF=0.

 **********************************************************************

            Population analysis using the MP2 density.

 **********************************************************************

 Alpha  occ. eigenvalues --  -11.24162 -11.24140 -11.24064 -11.24023 -11.23862
 Alpha  occ. eigenvalues --  -11.23849  -1.15312  -1.01684  -1.01332  -0.82427
 Alpha  occ. eigenvalues --   -0.81953  -0.70973  -0.64565  -0.61012  -0.59194
 Alpha  occ. eigenvalues --   -0.58264  -0.50123  -0.49974  -0.49046  -0.33334
 Alpha  occ. eigenvalues --   -0.33070
 Alpha virt. eigenvalues --    0.04200   0.04939   0.04960   0.06743   0.06765
 Alpha virt. eigenvalues --    0.09915   0.10184   0.10482   0.10946   0.12605
 Alpha virt. eigenvalues --    0.14809   0.14918   0.16314   0.18292   0.18477
 Alpha virt. eigenvalues --    0.18590   0.18633   0.19166   0.21125   0.21163
 Alpha virt. eigenvalues --    0.21248   0.21359   0.21428   0.21725   0.21892
 Alpha virt. eigenvalues --    0.22471   0.24381   0.25479   0.26216   0.26273
 Alpha virt. eigenvalues --    0.28996   0.29070   0.31890   0.34405   0.40433
 Alpha virt. eigenvalues --    0.40560   0.41002   0.42303   0.42474   0.49368
 Alpha virt. eigenvalues --    0.49425   0.50991   0.51405   0.51521   0.60639
 Alpha virt. eigenvalues --    0.61548   0.63254   0.72865   0.74010   0.74105
 Alpha virt. eigenvalues --    0.75940   0.76340   0.76896   0.77069   0.77542
 Alpha virt. eigenvalues --    0.80883   0.80908   0.82581   0.88809   0.92360
 Alpha virt. eigenvalues --    0.92591   0.94378   0.94804   0.97434   0.98826
 Alpha virt. eigenvalues --    0.99050   1.00414   1.01073   1.01850   1.04423
 Alpha virt. eigenvalues --    1.11677   1.12061   1.12546   1.17616   1.18487
 Alpha virt. eigenvalues --    1.34458   1.37485   1.37889   1.39301   1.39918
 Alpha virt. eigenvalues --    1.54042   1.60435   1.71224   1.77892   1.79302
 Alpha virt. eigenvalues --    1.81401   1.83820   1.84283   1.84630   1.89512
 Alpha virt. eigenvalues --    1.90654   1.93398   1.94652   1.97997   2.03975
 Alpha virt. eigenvalues --    2.04445   2.05162   2.09668   2.11362   2.13067
 Alpha virt. eigenvalues --    2.15517   2.17189   2.30504   2.30532   2.31827
 Alpha virt. eigenvalues --    2.34762   2.35409   2.39377   2.40193   2.53407
 Alpha virt. eigenvalues --    2.57746   2.61586   2.76764   2.77280   2.81192
 Alpha virt. eigenvalues --    2.82662   2.83681   2.94214   2.95964   2.96641
 Alpha virt. eigenvalues --    3.00557   3.02142   3.02591   3.04549   3.04746
 Alpha virt. eigenvalues --    3.10673   3.12065   3.18476   3.18907   3.33340
 Alpha virt. eigenvalues --    3.33957   3.34109   3.35601   3.46637   3.52826
 Alpha virt. eigenvalues --    3.76282   3.76478   3.84462   3.89394   3.89457
 Alpha virt. eigenvalues --    3.93293   4.41450   4.42501   4.42651   4.62625
 Alpha virt. eigenvalues --    4.63829   4.90253  24.76217  25.11022  25.11418
 Alpha virt. eigenvalues --   25.24522  25.25462  25.26366
          Condensed to atoms (all electrons):
               1          2          3          4          5          6
     1  C    6.379465  -0.266677  -0.314363   0.665328  -0.314363  -0.266677
     2  C   -0.266677   6.365902  -0.245138  -0.314363   0.656161  -0.295750
     3  C   -0.314363  -0.245138   6.365902  -0.266677  -0.295750   0.656161
     4  C    0.665328  -0.314363  -0.266677   6.379465  -0.266677  -0.314363
     5  C   -0.314363   0.656161  -0.295750  -0.266677   6.365902  -0.245138
     6  C   -0.266677  -0.295750   0.656161  -0.314363  -0.245138   6.365902
     7  H    0.524317  -0.123515  -0.042413   0.080316  -0.042413  -0.123515
     8  H   -0.121611   0.515390  -0.111936  -0.042870   0.076062  -0.038918
     9  H   -0.042870  -0.111936   0.515390  -0.121611  -0.038918   0.076062
    10  H    0.080316  -0.042413  -0.123515   0.524317  -0.123515  -0.042413
    11  H   -0.042870   0.076062  -0.038918  -0.121611   0.515390  -0.111936
    12  H   -0.121611  -0.038918   0.076062  -0.042870  -0.111936   0.515390
               7          8          9         10         11         12
     1  C    0.524317  -0.121611  -0.042870   0.080316  -0.042870  -0.121611
     2  C   -0.123515   0.515390  -0.111936  -0.042413   0.076062  -0.038918
     3  C   -0.042413  -0.111936   0.515390  -0.123515  -0.038918   0.076062
     4  C    0.080316  -0.042870  -0.121611   0.524317  -0.121611  -0.042870
     5  C   -0.042413   0.076062  -0.038918  -0.123515   0.515390  -0.111936
     6  C   -0.123515  -0.038918   0.076062  -0.042413  -0.111936   0.515390
     7  H    0.600631  -0.018568  -0.004043   0.005034  -0.004043  -0.018568
     8  H   -0.018568   0.590594  -0.015887  -0.004043   0.004619  -0.003445
     9  H   -0.004043  -0.015887   0.590594  -0.018568  -0.003445   0.004619
    10  H    0.005034  -0.004043  -0.018568   0.600631  -0.018568  -0.004043
    11  H   -0.004043   0.004619  -0.003445  -0.018568   0.590594  -0.015887
    12  H   -0.018568  -0.003445   0.004619  -0.004043  -0.015887   0.590594
 Mulliken charges:
               1
     1  C   -0.158386
     2  C   -0.174808
     3  C   -0.174808
     4  C   -0.158386
     5  C   -0.174808
     6  C   -0.174808
     7  H    0.166778
     8  H    0.170612
     9  H    0.170612
    10  H    0.166778
    11  H    0.170612
    12  H    0.170612
 Sum of Mulliken charges =  -0.00000
 Mulliken charges with hydrogens summed into heavy atoms:
               1
     1  C    0.008393
     2  C   -0.004196
     3  C   -0.004196
     4  C    0.008393
     5  C   -0.004196
     6  C   -0.004196
 Electronic spatial extent (au):  <R**2>=            459.0306
 Charge=             -0.0000 electrons
 Dipole moment (field-independent basis, Debye):
    X=              0.0000    Y=             -0.0000    Z=              0.0000  Tot=              0.0000
 Quadrupole moment (field-independent basis, Debye-Ang):
   XX=            -33.0798   YY=            -32.6598   ZZ=            -40.7941
   XY=              0.0000   XZ=              0.0083   YZ=              0.0000
 Traceless Quadrupole moment (field-independent basis, Debye-Ang):
   XX=              2.4315   YY=              2.8514   ZZ=             -5.2829
   XY=              0.0000   XZ=              0.0083   YZ=              0.0000
 Octapole moment (field-independent basis, Debye-Ang**2):
  XXX=              0.0000  YYY=             -0.0000  ZZZ=              0.0000  XYY=              0.0000
  XXY=             -0.0000  XXZ=             -0.0000  XZZ=              0.0000  YZZ=             -0.0000
  YYZ=              0.0000  XYZ=             -0.0000
 Hexadecapole moment (field-independent basis, Debye-Ang**3):
 XXXX=           -279.5644 YYYY=           -283.4929 ZZZZ=            -53.5910 XXXY=              0.0000
 XXXZ=              1.6062 YYYX=              0.0000 YYYZ=              0.0000 ZZZX=              0.0065
 ZZZY=              0.0000 XXYY=            -92.6813 XXZZ=            -65.6718 YYZZ=            -67.0015
 XXYZ=              0.0000 YYXZ=             -1.5828 ZZXY=             -0.0000
 N-N= 2.034248038597D+02 E-N=-9.444147334867D+02  KE= 2.314408660096D+02
 No NMR shielding tensors so no spin-rotation constants.
 Leave Link  601 at Wed Feb 12 16:23:26 2025, MaxMem=   104857600 cpu:               0.0 elap:               0.0
 (Enter /sw/cluster/pub/apps//g16/l9999.exe)
 1\1\GINC-N02\SP\RMP2-FC\6-311++G(d,p)\C6H6\UNKNOWN\12-Feb-2025\0\\#P M
 P2/6-311++G** nosymm Density=MP2\\Chair-25\\0,1\C,0,1.36327735,0.,0.10
 064173\C,0,0.6947581,1.21416409,-0.10064173\C,0,-0.6947581,1.21416409,
 0.10064173\C,0,-1.36327735,0.,-0.10064173\C,0,-0.6947581,-1.21416409,0
 .10064173\C,0,0.6947581,-1.21416409,-0.10064173\H,0,2.45039262,0.,0.08
 792996\H,0,1.25211267,2.14527816,-0.07981948\H,0,-1.25211267,2.1452781
 6,0.07981948\H,0,-2.45039262,0.,-0.08792996\H,0,-1.25211267,-2.1452781
 6,0.07981948\H,0,1.25211267,-2.14527816,-0.07981948\\Version=ES64L-G16
 RevA.03\HF=-230.7219597\MP2=-231.5588959\RMSD=3.692e-09\Dipole=0.,0.,0
 .\Quadrupole=1.8077328,2.1199634,-3.9276962,0.,0.0061904,0.\PG=C02H [S
 GH(C2H2),X(C4H4)]\\@


 ABOVE ALL I AM AN OPTIMIST FOR NUMBER THEORY,
 AND I HOLD THE HOPE THAT WE MAY NOT BE FAR FROM
 A TIME WHEN IRREFUTABLE ARITHMETIC WILL CELEBRATE
 ITS TRIUMPHS IN PHYSICS AND CHEMISTRY.
   -- HERMANN MINKOWSKI, 1905
 Job cpu time:       0 days  0 hours  0 minutes 25.8 seconds.
 Elapsed time:       0 days  0 hours  0 minutes 25.9 seconds.
 File lengths (MBytes):  RWF=     20 Int=      0 D2E=      0 Chk=      4 Scr=      1
 Normal termination of Gaussian 16 at Wed Feb 12 16:23:26 2025.
