 Entering Gaussian System, Link 0=g09
 Initial command:
 /apps/software//g09/l1.exe /scratch/itamar/2427.cluster.abaxnet/Gau-8308.inp -scrdir=/scratch/itamar/2427.cluster.abaxnet/
 Entering Link 1 = /apps/software//g09/l1.exe PID=      8309.
  
 Copyright (c) 1988,1990,1992,1993,1995,1998,2003,2009, Gaussian, Inc.
                  All Rights Reserved.
  
 This is part of the Gaussian(R) 09 program.  It is based on
 the Gaussian(R) 03 system (copyright 2003, Gaussian, Inc.),
 the Gaussian(R) 98 system (copyright 1998, Gaussian, Inc.),
 the Gaussian(R) 94 system (copyright 1995, Gaussian, Inc.),
 the Gaussian 92(TM) system (copyright 1992, Gaussian, Inc.),
 the Gaussian 90(TM) system (copyright 1990, Gaussian, Inc.),
 the Gaussian 88(TM) system (copyright 1988, Gaussian, Inc.),
 the Gaussian 86(TM) system (copyright 1986, Carnegie Mellon
 University), and the Gaussian 82(TM) system (copyright 1983,
 Carnegie Mellon University). Gaussian is a federally registered
 trademark of Gaussian, Inc.
  
 This software contains proprietary and confidential information,
 including trade secrets, belonging to Gaussian, Inc.
  
 This software is provided under written license and may be
 used, copied, transmitted, or stored only in accord with that
 written license.
  
 The following legend is applicable only to US Government
 contracts under FAR:
  
                    RESTRICTED RIGHTS LEGEND
  
 Use, reproduction and disclosure by the US Government is
 subject to restrictions as set forth in subparagraphs (a)
 and (c) of the Commercial Computer Software - Restricted
 Rights clause in FAR 52.227-19.
  
 Gaussian, Inc.
 340 Quinnipiac St., Bldg. 40, Wallingford CT 06492
  
  
 ---------------------------------------------------------------
 Warning -- This program may not be used in any manner that
 competes with the business of Gaussian, Inc. or will provide
 assistance to any competitor of Gaussian, Inc.  The licensee
 of this program is prohibited from giving any competitor of
 Gaussian, Inc. access to this program.  By using this program,
 the user acknowledges that Gaussian, Inc. is engaged in the
 business of creating and licensing software in the field of
 computational chemistry and represents and warrants to the
 licensee that it is not a competitor of Gaussian, Inc. and that
 it will not use this program in any manner prohibited above.
 ---------------------------------------------------------------
  

 Cite this work as:
 Gaussian 09, Revision A.02,
 M. J. Frisch, G. W. Trucks, H. B. Schlegel, G. E. Scuseria, 
 M. A. Robb, J. R. Cheeseman, G. Scalmani, V. Barone, B. Mennucci, 
 G. A. Petersson, H. Nakatsuji, M. Caricato, X. Li, H. P. Hratchian, 
 A. F. Izmaylov, J. Bloino, G. Zheng, J. L. Sonnenberg, M. Hada, 
 M. Ehara, K. Toyota, R. Fukuda, J. Hasegawa, M. Ishida, T. Nakajima, 
 Y. Honda, O. Kitao, H. Nakai, T. Vreven, J. A. Montgomery, Jr., 
 J. E. Peralta, F. Ogliaro, M. Bearpark, J. J. Heyd, E. Brothers, 
 K. N. Kudin, V. N. Staroverov, R. Kobayashi, J. Normand, 
 K. Raghavachari, A. Rendell, J. C. Burant, S. S. Iyengar, J. Tomasi, 
 M. Cossi, N. Rega, J. M. Millam, M. Klene, J. E. Knox, J. B. Cross, 
 V. Bakken, C. Adamo, J. Jaramillo, R. Gomperts, R. E. Stratmann, 
 O. Yazyev, A. J. Austin, R. Cammi, C. Pomelli, J. W. Ochterski, 
 R. L. Martin, K. Morokuma, V. G. Zakrzewski, G. A. Voth, 
 P. Salvador, J. J. Dannenberg, S. Dapprich, A. D. Daniels, 
 O. Farkas, J. B. Foresman, J. V. Ortiz, J. Cioslowski, 
 and D. J. Fox, Gaussian, Inc., Wallingford CT, 2009.
 
 ******************************************
 Gaussian 09:  EM64L-G09RevA.02 11-Jun-2009
                 3-Dec-2021 
 ******************************************
 %Mem=3800MB
 %NProcShared=6
 Will use up to    6 processors via shared memory.
 %chk=/home/itamar/Aromaticity-test-set/T4-Chair-Like/25/chair-25.chk
 -----------------------------
 #P MP2/6-311++G** DENSITY=MP2
 -----------------------------
 1/30=1,38=1/1;
 2/12=2,17=6,18=5,40=1/2;
 3/5=4,6=6,7=1111,11=9,16=1,25=1,30=1,71=1/1,2,3;
 4//1;
 5/5=2,38=5/2;
 8/6=4,10=2/1;
 9/15=1,16=-3/6;
 10/5=1,13=10/2;
 6/7=2,8=2,9=2,10=2,22=2/1;
 99/5=1,9=1/99;
 Leave Link    1 at Fri Dec  3 12:05:51 2021, MaxMem=  498073600 cpu:       0.2
 (Enter /apps/software//g09/l101.exe)
 --------
 Chair-25
 --------
 Symbolic Z-matrix:
 Charge =  0 Multiplicity = 1
 6                     0.        1.36343  -0.09861 
 6                     1.21416   0.69461   0.10168 
 6                     1.21416  -0.69461  -0.10168 
 6                     0.       -1.36343   0.09861 
 6                    -1.21416  -0.69461  -0.10168 
 6                    -1.21416   0.69461   0.10168 
 1                     0.        2.45052  -0.08427 
 1                     2.14528   1.25199   0.08169 
 1                     2.14528  -1.25199  -0.08169 
 1                     0.       -2.45052   0.08427 
 1                    -2.14528  -1.25199  -0.08169 
 1                    -2.14528   1.25199   0.08169 
 
 NAtoms=     12 NQM=     12 NQMF=      0 NMic=      0 NMicF=      0 NTot=     12.
                    Isotopes and Nuclear Properties:
 (Nuclear quadrupole moments (NQMom) in fm**2, nuclear magnetic moments (NMagM)
  in nuclear magnetons)

  Atom         1           2           3           4           5           6           7           8           9          10
 IAtWgt=          12          12          12          12          12          12           1           1           1           1
 AtmWgt=  12.0000000  12.0000000  12.0000000  12.0000000  12.0000000  12.0000000   1.0078250   1.0078250   1.0078250   1.0078250
 NucSpn=           0           0           0           0           0           0           1           1           1           1
 AtZEff=   0.0000000   0.0000000   0.0000000   0.0000000   0.0000000   0.0000000   0.0000000   0.0000000   0.0000000   0.0000000
 NQMom=    0.0000000   0.0000000   0.0000000   0.0000000   0.0000000   0.0000000   0.0000000   0.0000000   0.0000000   0.0000000
 NMagM=    0.0000000   0.0000000   0.0000000   0.0000000   0.0000000   0.0000000   2.7928460   2.7928460   2.7928460   2.7928460

  Atom        11          12
 IAtWgt=           1           1
 AtmWgt=   1.0078250   1.0078250
 NucSpn=           1           1
 AtZEff=   0.0000000   0.0000000
 NQMom=    0.0000000   0.0000000
 NMagM=    2.7928460   2.7928460
 Leave Link  101 at Fri Dec  3 12:05:51 2021, MaxMem=  498073600 cpu:       0.3
 (Enter /apps/software//g09/l202.exe)
                          Input orientation:                          
 ---------------------------------------------------------------------
 Center     Atomic      Atomic             Coordinates (Angstroms)
 Number     Number       Type             X           Y           Z
 ---------------------------------------------------------------------
      1          6           0        0.000000    1.363426   -0.098606
      2          6           0        1.214164    0.694607    0.101679
      3          6           0        1.214164   -0.694607   -0.101679
      4          6           0        0.000000   -1.363426    0.098606
      5          6           0       -1.214164   -0.694607   -0.101679
      6          6           0       -1.214164    0.694607    0.101679
      7          1           0        0.000000    2.450521   -0.084271
      8          1           0        2.145278    1.251992    0.081689
      9          1           0        2.145278   -1.251992   -0.081689
     10          1           0        0.000000   -2.450521    0.084271
     11          1           0       -2.145278   -1.251992   -0.081689
     12          1           0       -2.145278    1.251992    0.081689
 ---------------------------------------------------------------------
                    Distance matrix (angstroms):
                    1          2          3          4          5
     1  C    0.000000
     2  C    1.400581   0.000000
     3  C    2.389499   1.404019   0.000000
     4  C    2.733974   2.389499   1.400581   0.000000
     5  C    2.389499   2.805004   2.428328   1.400581   0.000000
     6  C    1.400581   2.428328   2.805004   2.389499   1.404019
     7  H    1.087190   2.142897   3.371398   3.818329   3.371398
     8  H    2.155723   1.085381   2.165605   3.382738   3.886994
     9  H    3.382738   2.165605   1.085381   2.155723   3.405426
    10  H    3.818329   3.371398   2.142897   1.087190   2.142897
    11  H    3.382738   3.886994   3.405426   2.155723   1.085381
    12  H    2.155723   3.405426   3.886994   3.382738   2.165605
                    6          7          8          9         10
     6  C    0.000000
     7  H    2.142897   0.000000
     8  H    3.405426   2.462972   0.000000
     9  H    3.886994   4.279115   2.509308   0.000000
    10  H    3.371398   4.903939   4.279115   2.462972   0.000000
    11  H    2.165605   4.279115   4.970463   4.290556   2.462972
    12  H    1.085381   2.462972   4.290556   4.970463   4.279115
                   11         12
    11  H    0.000000
    12  H    2.509308   0.000000
 Stoichiometry    C6H6
 Framework group  C2H[SGH(C2H2),X(C4H4)]
 Deg. of freedom     9
 Full point group                 C2H     NOp   4
 Largest Abelian subgroup         C2H     NOp   4
 Largest concise Abelian subgroup C2H     NOp   4
                         Standard orientation:                         
 ---------------------------------------------------------------------
 Center     Atomic      Atomic             Coordinates (Angstroms)
 Number     Number       Type             X           Y           Z
 ---------------------------------------------------------------------
      1          6           0        0.100642    1.363277    0.000000
      2          6           0       -0.100642    0.694758    1.214164
      3          6           0        0.100642   -0.694758    1.214164
      4          6           0       -0.100642   -1.363277    0.000000
      5          6           0        0.100642   -0.694758   -1.214164
      6          6           0       -0.100642    0.694758   -1.214164
      7          1           0        0.087930    2.450392    0.000000
      8          1           0       -0.079819    1.252113    2.145278
      9          1           0        0.079819   -1.252113    2.145278
     10          1           0       -0.087930   -2.450392    0.000000
     11          1           0        0.079819   -1.252113   -2.145278
     12          1           0       -0.079819    1.252113   -2.145278
 ---------------------------------------------------------------------
 Rotational constants (GHZ):      5.8111432      5.6100382      2.8794729
 Leave Link  202 at Fri Dec  3 12:05:51 2021, MaxMem=  498073600 cpu:       0.1
 (Enter /apps/software//g09/l301.exe)
 Standard basis: 6-311++G(d,p) (5D, 7F)
 Ernie: Thresh=  0.10000D-02 Tol=  0.10000D-05 Strict=F.
 There are    51 symmetry adapted basis functions of AG  symmetry.
 There are    36 symmetry adapted basis functions of BG  symmetry.
 There are    36 symmetry adapted basis functions of AU  symmetry.
 There are    51 symmetry adapted basis functions of BU  symmetry.
 Integral buffers will be    131072 words long.
 Raffenetti 1 integral format.
 Two-electron integral symmetry is turned on.
   174 basis functions,   270 primitive gaussians,   180 cartesian basis functions
    21 alpha electrons       21 beta electrons
       nuclear repulsion energy       203.4248182065 Hartrees.
 IExCor=    0 DFT=F Ex=HF Corr=None ExCW=0 ScaHFX=  1.000000
 ScaDFX=  1.000000  1.000000  1.000000  1.000000 ScalE2=  1.000000  1.000000
 IRadAn=      0 IRanWt=     -1 IRanGd=            0 ICorTp=0
 NAtoms=   12 NActive=   12 NUniq=    4 SFac= 3.00D+00 NAtFMM=   80 NAOKFM=F Big=F
 Leave Link  301 at Fri Dec  3 12:05:51 2021, MaxMem=  498073600 cpu:       0.2
 (Enter /apps/software//g09/l302.exe)
 NPDir=0 NMtPBC=     1 NCelOv=     1 NCel=       1 NClECP=     1 NCelD=      1
         NCelK=      1 NCelE2=     1 NClLst=     1 CellRange=     0.0.
 One-electron integrals computed using PRISM.
 One-electron integral symmetry used in STVInt
 NBasis=   174 RedAO= T  NBF=    51    36    36    51
 NBsUse=   174 1.00D-06 NBFU=    51    36    36    51
 Leave Link  302 at Fri Dec  3 12:05:52 2021, MaxMem=  498073600 cpu:       1.4
 (Enter /apps/software//g09/l303.exe)
 DipDrv:  MaxL=1.
 Leave Link  303 at Fri Dec  3 12:05:52 2021, MaxMem=  498073600 cpu:       0.5
 (Enter /apps/software//g09/l401.exe)
 Harris functional with IExCor=  205 diagonalized for initial guess.
 ExpMin= 3.60D-02 ExpMax= 4.56D+03 ExpMxC= 6.82D+02 IAcc=3 IRadAn=         0 AccDes= 0.00D+00
 HarFok:  IExCor=  205 AccDes= 0.00D+00 IRadAn=         0 IDoV= 1
 ScaDFX=  1.000000  1.000000  1.000000  1.000000
 FoFCou: FMM=F IPFlag=           0 FMFlag=      100000 FMFlg1=           0
         NFxFlg=           0 DoJE=T BraDBF=F KetDBF=T FulRan=T
         Omega=  0.000000  0.000000  1.000000  0.000000  0.000000 ICntrl=     500 IOpCl=  0
         NMat0=    1 NMatS0=    1 NMatT0=    0 NMatD0=    1 NMtDS0=    0 NMtDT0=    0
         I1Cent=           4 NGrid=           0.
 Petite list used in FoFCou.
 Harris En= -231.118822237227    
 Initial guess orbital symmetries:
       Occupied  (AG) (BU) (AU) (AG) (BG) (BU) (AG) (AU) (BU) (BG)
                 (AG) (AG) (AU) (BU) (AU) (BU) (BU) (BG) (AG) (BG)
                 (AG)
       Virtual   (AU) (BU) (AG) (AG) (BU) (AU) (AG) (BG) (BU) (AG)
                 (BU) (BG) (AG) (AU) (AU) (AG) (BU) (AG) (BG) (AU)
                 (BU) (BU) (AU) (BU) (BG) (AG) (BU) (AU) (BU) (AG)
                 (BG) (AG) (BG) (AG) (BG) (AG) (BU) (AU) (BU) (BU)
                 (BU) (BG) (AU) (AG) (BG) (AU) (AG) (BU) (BG) (AG)
                 (BU) (BU) (AU) (BG) (AG) (AG) (BU) (AU) (AG) (AG)
                 (BG) (BU) (BG) (AU) (BU) (AG) (AU) (BU) (BG) (AG)
                 (BU) (BU) (AU) (BG) (AG) (BG) (AU) (BU) (BG) (AG)
                 (AG) (BU) (AU) (AU) (BU) (AG) (AU) (BU) (AG) (AG)
                 (BG) (AU) (BU) (BU) (BG) (BG) (BG) (AG) (AG) (AG)
                 (AU) (BG) (AU) (BU) (BU) (AG) (BG) (BU) (AU) (AU)
                 (AG) (BU) (AG) (BG) (AU) (BU) (AG) (BU) (AU) (BU)
                 (AG) (BG) (BG) (AG) (BU) (BG) (AU) (AG) (BU) (BU)
                 (AU) (AG) (BG) (AU) (AG) (BG) (AG) (BU) (AU) (BU)
                 (AG) (AG) (BG) (BU) (BU) (AU) (BG) (AG) (BU) (AU)
                 (BG) (AG) (BU)
 The electronic state of the initial guess is 1-AG.
 Leave Link  401 at Fri Dec  3 12:05:52 2021, MaxMem=  498073600 cpu:       2.4
 (Enter /apps/software//g09/l502.exe)
 Closed shell SCF:
 Requested convergence on RMS density matrix=1.00D-08 within 128 cycles.
 Requested convergence on MAX density matrix=1.00D-06.
 Requested convergence on             energy=1.00D-06.
 No special actions if energy rises.
 Using DIIS extrapolation, IDIIS=  1040.
 Integral symmetry usage will be decided dynamically.
 Keep R1 ints in memory in canonical form, NReq=135773479.
 IEnd=      118490 IEndB=      118490 NGot=   498073600 MDV=   365314108
 LenX=   365314108 LenY=   365281267
 Symmetry not used in FoFDir.
 MinBra= 0 MaxBra= 2 Meth= 1.
 IRaf=       0 NMat=   1 IRICut=       1 DoRegI=T DoRafI=F ISym2E= 0 JSym2E=0.

 Cycle   1  Pass 1  IDiag  1:
 E= -230.422989036347    
 DIIS: error= 6.17D-02 at cycle   1 NSaved=   1.
 NSaved= 1 IEnMin= 1 EnMin= -230.422989036347     IErMin= 1 ErrMin= 6.17D-02
 ErrMax= 6.17D-02 EMaxC= 1.00D-01 BMatC= 5.12D-01 BMatP= 5.12D-01
 IDIUse=3 WtCom= 3.83D-01 WtEn= 6.17D-01
 Coeff-Com:  0.100D+01
 Coeff-En:   0.100D+01
 Coeff:      0.100D+01
 Gap=     0.346 Goal=   None    Shift=    0.000
 GapD=    0.346 DampG=1.000 DampE=0.500 DampFc=0.5000 IDamp=-1.
 Damping current iteration by 5.00D-01
 RMSDP=8.87D-03 MaxDP=2.78D-01              OVMax= 1.60D-01

 Cycle   2  Pass 1  IDiag  1:
 E= -230.579802354957     Delta-E=       -0.156813318610 Rises=F Damp=T
 DIIS: error= 3.23D-02 at cycle   2 NSaved=   2.
 NSaved= 2 IEnMin= 2 EnMin= -230.579802354957     IErMin= 2 ErrMin= 3.23D-02
 ErrMax= 3.23D-02 EMaxC= 1.00D-01 BMatC= 1.10D-01 BMatP= 5.12D-01
 IDIUse=3 WtCom= 6.77D-01 WtEn= 3.23D-01
 Coeff-Com: -0.683D+00 0.168D+01
 Coeff-En:   0.000D+00 0.100D+01
 Coeff:     -0.462D+00 0.146D+01
 Gap=     0.383 Goal=   None    Shift=    0.000
 RMSDP=6.85D-03 MaxDP=2.29D-01 DE=-1.57D-01 OVMax= 5.14D-02

 Cycle   3  Pass 1  IDiag  1:
 E= -230.720618286635     Delta-E=       -0.140815931678 Rises=F Damp=F
 DIIS: error= 3.60D-03 at cycle   3 NSaved=   3.
 NSaved= 3 IEnMin= 3 EnMin= -230.720618286635     IErMin= 3 ErrMin= 3.60D-03
 ErrMax= 3.60D-03 EMaxC= 1.00D-01 BMatC= 1.33D-03 BMatP= 1.10D-01
 IDIUse=3 WtCom= 9.64D-01 WtEn= 3.60D-02
 Coeff-Com: -0.986D-01 0.159D+00 0.939D+00
 Coeff-En:   0.000D+00 0.000D+00 0.100D+01
 Coeff:     -0.950D-01 0.154D+00 0.941D+00
 Gap=     0.373 Goal=   None    Shift=    0.000
 RMSDP=8.96D-04 MaxDP=2.78D-02 DE=-1.41D-01 OVMax= 9.43D-03

 Cycle   4  Pass 1  IDiag  1:
 E= -230.721900710283     Delta-E=       -0.001282423648 Rises=F Damp=F
 DIIS: error= 7.28D-04 at cycle   4 NSaved=   4.
 NSaved= 4 IEnMin= 4 EnMin= -230.721900710283     IErMin= 4 ErrMin= 7.28D-04
 ErrMax= 7.28D-04 EMaxC= 1.00D-01 BMatC= 2.99D-05 BMatP= 1.33D-03
 IDIUse=3 WtCom= 9.93D-01 WtEn= 7.28D-03
 Coeff-Com:  0.868D-02-0.210D-01-0.123D-01 0.102D+01
 Coeff-En:   0.000D+00 0.000D+00 0.000D+00 0.100D+01
 Coeff:      0.862D-02-0.208D-01-0.122D-01 0.102D+01
 Gap=     0.373 Goal=   None    Shift=    0.000
 RMSDP=2.75D-04 MaxDP=8.58D-03 DE=-1.28D-03 OVMax= 1.87D-03

 Cycle   5  Pass 1  IDiag  1:
 E= -230.721954208632     Delta-E=       -0.000053498349 Rises=F Damp=F
 DIIS: error= 1.47D-04 at cycle   5 NSaved=   5.
 NSaved= 5 IEnMin= 5 EnMin= -230.721954208632     IErMin= 5 ErrMin= 1.47D-04
 ErrMax= 1.47D-04 EMaxC= 1.00D-01 BMatC= 2.52D-06 BMatP= 2.99D-05
 IDIUse=3 WtCom= 9.99D-01 WtEn= 1.47D-03
 Coeff-Com:  0.410D-02-0.602D-02-0.470D-01-0.150D+00 0.120D+01
 Coeff-En:   0.000D+00 0.000D+00 0.000D+00 0.000D+00 0.100D+01
 Coeff:      0.410D-02-0.601D-02-0.469D-01-0.150D+00 0.120D+01
 Gap=     0.373 Goal=   None    Shift=    0.000
 RMSDP=8.37D-05 MaxDP=3.18D-03 DE=-5.35D-05 OVMax= 6.75D-04

 Cycle   6  Pass 1  IDiag  1:
 E= -230.721959467655     Delta-E=       -0.000005259023 Rises=F Damp=F
 DIIS: error= 6.12D-05 at cycle   6 NSaved=   6.
 NSaved= 6 IEnMin= 6 EnMin= -230.721959467655     IErMin= 6 ErrMin= 6.12D-05
 ErrMax= 6.12D-05 EMaxC= 1.00D-01 BMatC= 1.68D-07 BMatP= 2.52D-06
 IDIUse=1 WtCom= 1.00D+00 WtEn= 0.00D+00
 Coeff-Com:  0.962D-03-0.122D-02-0.122D-01-0.651D-01 0.302D+00 0.775D+00
 Coeff:      0.962D-03-0.122D-02-0.122D-01-0.651D-01 0.302D+00 0.775D+00
 Gap=     0.373 Goal=   None    Shift=    0.000
 RMSDP=7.87D-06 MaxDP=2.73D-04 DE=-5.26D-06 OVMax= 1.24D-04

 Cycle   7  Pass 1  IDiag  1:
 E= -230.721959687878     Delta-E=       -0.000000220223 Rises=F Damp=F
 DIIS: error= 1.13D-05 at cycle   7 NSaved=   7.
 NSaved= 7 IEnMin= 7 EnMin= -230.721959687878     IErMin= 7 ErrMin= 1.13D-05
 ErrMax= 1.13D-05 EMaxC= 1.00D-01 BMatC= 1.20D-08 BMatP= 1.68D-07
 IDIUse=1 WtCom= 1.00D+00 WtEn= 0.00D+00
 Coeff-Com: -0.457D-03 0.650D-03 0.576D-02 0.231D-01-0.155D+00-0.794D-01
 Coeff-Com:  0.121D+01
 Coeff:     -0.457D-03 0.650D-03 0.576D-02 0.231D-01-0.155D+00-0.794D-01
 Coeff:      0.121D+01
 Gap=     0.373 Goal=   None    Shift=    0.000
 RMSDP=4.34D-06 MaxDP=1.22D-04 DE=-2.20D-07 OVMax= 7.82D-05

 Cycle   8  Pass 1  IDiag  1:
 E= -230.721959722680     Delta-E=       -0.000000034802 Rises=F Damp=F
 DIIS: error= 3.52D-06 at cycle   8 NSaved=   8.
 NSaved= 8 IEnMin= 8 EnMin= -230.721959722680     IErMin= 8 ErrMin= 3.52D-06
 ErrMax= 3.52D-06 EMaxC= 1.00D-01 BMatC= 7.22D-10 BMatP= 1.20D-08
 IDIUse=1 WtCom= 1.00D+00 WtEn= 0.00D+00
 Coeff-Com:  0.105D-03-0.153D-03-0.154D-02-0.488D-02 0.414D-01-0.189D-01
 Coeff-Com: -0.466D+00 0.145D+01
 Coeff:      0.105D-03-0.153D-03-0.154D-02-0.488D-02 0.414D-01-0.189D-01
 Coeff:     -0.466D+00 0.145D+01
 Gap=     0.373 Goal=   None    Shift=    0.000
 RMSDP=1.92D-06 MaxDP=6.57D-05 DE=-3.48D-08 OVMax= 2.93D-05

 Cycle   9  Pass 1  IDiag  1:
 E= -230.721959725431     Delta-E=       -0.000000002751 Rises=F Damp=F
 DIIS: error= 4.27D-07 at cycle   9 NSaved=   9.
 NSaved= 9 IEnMin= 9 EnMin= -230.721959725431     IErMin= 9 ErrMin= 4.27D-07
 ErrMax= 4.27D-07 EMaxC= 1.00D-01 BMatC= 1.42D-11 BMatP= 7.22D-10
 IDIUse=1 WtCom= 1.00D+00 WtEn= 0.00D+00
 Coeff-Com: -0.198D-04 0.290D-04 0.337D-03 0.974D-03-0.892D-02 0.833D-02
 Coeff-Com:  0.116D+00-0.474D+00 0.136D+01
 Coeff:     -0.198D-04 0.290D-04 0.337D-03 0.974D-03-0.892D-02 0.833D-02
 Coeff:      0.116D+00-0.474D+00 0.136D+01
 Gap=     0.373 Goal=   None    Shift=    0.000
 RMSDP=3.00D-07 MaxDP=9.16D-06 DE=-2.75D-09 OVMax= 3.59D-06

 Cycle  10  Pass 1  IDiag  1:
 E= -230.721959725480     Delta-E=       -0.000000000049 Rises=F Damp=F
 DIIS: error= 2.97D-08 at cycle  10 NSaved=  10.
 NSaved=10 IEnMin=10 EnMin= -230.721959725480     IErMin=10 ErrMin= 2.97D-08
 ErrMax= 2.97D-08 EMaxC= 1.00D-01 BMatC= 1.99D-13 BMatP= 1.42D-11
 IDIUse=1 WtCom= 1.00D+00 WtEn= 0.00D+00
 Coeff-Com:  0.283D-05-0.386D-05-0.608D-04-0.163D-03 0.152D-02-0.176D-02
 Coeff-Com: -0.206D-01 0.932D-01-0.340D+00 0.127D+01
 Coeff:      0.283D-05-0.386D-05-0.608D-04-0.163D-03 0.152D-02-0.176D-02
 Coeff:     -0.206D-01 0.932D-01-0.340D+00 0.127D+01
 Gap=     0.373 Goal=   None    Shift=    0.000
 RMSDP=4.20D-08 MaxDP=1.59D-06 DE=-4.88D-11 OVMax= 3.84D-07

 Cycle  11  Pass 1  IDiag  1:
 E= -230.721959725481     Delta-E=       -0.000000000001 Rises=F Damp=F
 DIIS: error= 5.63D-09 at cycle  11 NSaved=  11.
 NSaved=11 IEnMin=11 EnMin= -230.721959725481     IErMin=11 ErrMin= 5.63D-09
 ErrMax= 5.63D-09 EMaxC= 1.00D-01 BMatC= 3.98D-15 BMatP= 1.99D-13
 IDIUse=1 WtCom= 1.00D+00 WtEn= 0.00D+00
 Coeff-Com:  0.114D-07-0.654D-07 0.160D-05 0.248D-05-0.238D-04 0.762D-04
 Coeff-Com:  0.421D-03-0.307D-02 0.192D-01-0.186D+00 0.117D+01
 Coeff:      0.114D-07-0.654D-07 0.160D-05 0.248D-05-0.238D-04 0.762D-04
 Coeff:      0.421D-03-0.307D-02 0.192D-01-0.186D+00 0.117D+01
 Gap=     0.373 Goal=   None    Shift=    0.000
 RMSDP=5.63D-09 MaxDP=1.56D-07 DE=-1.48D-12 OVMax= 6.31D-08

 SCF Done:  E(RHF) =  -230.721959725     A.U. after   11 cycles
             Convg  =    0.5633D-08             -V/T =  2.0013
 KE= 2.304231008435D+02 PE=-9.435894147880D+02 EE= 2.790195360125D+02
 Leave Link  502 at Fri Dec  3 12:06:01 2021, MaxMem=  498073600 cpu:      50.6
 (Enter /apps/software//g09/l801.exe)
 ExpMin= 3.60D-02 ExpMax= 4.56D+03 ExpMxC= 6.82D+02 IAcc=3 IRadAn=         5 AccDes= 0.00D+00
 HarFok:  IExCor=  205 AccDes= 0.00D+00 IRadAn=         5 IDoV=-2
 ScaDFX=  1.000000  1.000000  1.000000  1.000000
 Largest valence mixing into a core orbital is  1.46D-04
 Largest core mixing into a valence orbital is  4.03D-05
 Range of M.O.s used for correlation:     7   174
 NBasis=   174 NAE=    21 NBE=    21 NFC=     6 NFV=     0
 NROrb=    168 NOA=    15 NOB=    15 NVA=   153 NVB=   153

 **** Warning!!: The largest alpha MO coefficient is  0.70337666D+02

 Leave Link  801 at Fri Dec  3 12:06:01 2021, MaxMem=  498073600 cpu:       1.2
 (Enter /apps/software//g09/l906.exe)
 Frozen-core derivative calculation, NFC=   6 NFV=   0.
 FulOut=F Deriv=T AODrv=F NAtomX=    12
   MMem=         574  MDisk=          15 MDiskD=          15
  W3Min=      657720 MinDsk=     1009670 NBas6D=         180
 NBas2D=       16542    NTT=       16290    LW2=     2040000
    MDV=   497694788 MDiskM=       38248 NBas2p=        4804
 Fully in-core method, ICMem=   280919484.
 IMap=   1   2   3   4   5   6   7   8   9  10  11  12  13  14  15  16  17  18  19  20
 IMap=  21
 JobTyp=1 Pass  1 fully in-core, NPsUse=  6.
 Compute canonical integrals, IntTyp=   4.
 Symmetry not used in FoFDir.
 MinBra= 0 MaxBra= 2 Meth= 1.
 IRaf=       0 NMat=   1 IRICut=       1 DoRegI=T DoRafI=F ISym2E= 0 JSym2E=0.
 Spin components of T(2) and E(2):
     alpha-alpha T2 =       0.4320820517D-01 E2=     -0.1088386578D+00
     alpha-beta  T2 =       0.2288823612D+00 E2=     -0.6192588523D+00
     beta-beta   T2 =       0.4320820517D-01 E2=     -0.1088386578D+00
 The integrals were generated   1 times.
 ANorm=    0.1146864757D+01
 E2 =    -0.8369361680D+00 EUMP2 =    -0.23155889589345D+03
 Leave Link  906 at Fri Dec  3 12:06:28 2021, MaxMem=  498073600 cpu:     162.0
 (Enter /apps/software//g09/l1002.exe)
 Minotr:  Closed shell wavefunction.
          Computing MP2/KS-MP2 derivatives.
          Using Z-Vector for PSCF gradient.
          Skipping F1 and S1 gradient terms here.
          Frozen-core window.
          Direct CPHF calculation.
          Differentiating once with respect to electric field.
                with respect to dipole field.
          Electric field/nuclear overlap derivatives assumed to be zero.
          Using symmetry in CPHF.
          Requested convergence is 1.0D-10 RMS, and 1.0D-09 maximum.
          NewPWx=F KeepS1=T KeepF1=T KeepIn=T MapXYZ=F SortEE=F KeepMc=T.
          MDV=     498073500 using IRadAn=       0.
          Keep R1 ints in memory in canonical form, NReq=133512102.
 Symmetry not used in FoFDir.
 MinBra= 0 MaxBra= 2 Meth= 1.
 IRaf=       0 NMat=   1 IRICut=       1 DoRegI=T DoRafI=F ISym2E= 0 JSym2E=0.
          Solving linear equations separately, MaxMat=       0.
          There are     1 degrees of freedom in the 1st order CPHF.  IDoFFX=0.
 LinEq1:  Iter=  0 NonCon=     1 RMS=3.42D-03 Max=5.68D-02
 AX will form     1 AO Fock derivatives at one time.
 LinEq1:  Iter=  1 NonCon=     1 RMS=8.31D-04 Max=1.49D-02
 LinEq1:  Iter=  2 NonCon=     1 RMS=2.39D-04 Max=5.20D-03
 LinEq1:  Iter=  3 NonCon=     1 RMS=5.06D-05 Max=7.94D-04
 LinEq1:  Iter=  4 NonCon=     1 RMS=7.92D-06 Max=9.37D-05
 LinEq1:  Iter=  5 NonCon=     1 RMS=1.79D-06 Max=3.38D-05
 LinEq1:  Iter=  6 NonCon=     1 RMS=5.47D-07 Max=5.81D-06
 LinEq1:  Iter=  7 NonCon=     1 RMS=7.18D-08 Max=1.29D-06
 LinEq1:  Iter=  8 NonCon=     1 RMS=1.07D-08 Max=1.40D-07
 LinEq1:  Iter=  9 NonCon=     1 RMS=1.47D-09 Max=1.39D-08
 LinEq1:  Iter= 10 NonCon=     1 RMS=1.60D-10 Max=2.32D-09
 LinEq1:  Iter= 11 NonCon=     0 RMS=2.87D-11 Max=4.46D-10
 Linear equations converged to 1.000D-10 1.000D-09 after    11 iterations.
 End of Minotr Frequency-dependent properties file   721 does not exist.
 End of Minotr Frequency-dependent properties file   722 does not exist.
 Leave Link 1002 at Fri Dec  3 12:06:38 2021, MaxMem=  498073600 cpu:      55.3
 (Enter /apps/software//g09/l601.exe)
 Copying SCF densities to generalized density rwf, IOpCl= 0 IROHF=0.

 **********************************************************************

            Population analysis using the MP2 density.

 **********************************************************************

 Orbital symmetries:
       Occupied  (AG) (AU) (BU) (BG) (AG) (BU) (AG) (AU) (BU) (BG)
                 (AG) (AG) (BU) (AU) (AU) (BU) (BU) (BG) (AG) (BG)
                 (AG)
       Virtual   (AG) (AU) (BU) (BG) (AG) (BU) (AU) (BU) (BU) (AG)
                 (BG) (AG) (AU) (AG) (BG) (BU) (AU) (AG) (AU) (BU)
                 (BU) (BG) (AG) (AU) (BU) (BG) (AG) (BU) (BU) (AU)
                 (BG) (AG) (AG) (AG) (AU) (BU) (BU) (BG) (AG) (AG)
                 (BG) (BU) (AU) (BU) (AU) (AG) (BG) (BU) (BG) (AG)
                 (BU) (AU) (BG) (AG) (BU) (BU) (AU) (AG) (AG) (BU)
                 (AU) (AG) (BG) (AG) (AU) (BU) (BG) (AG) (BU) (BG)
                 (BU) (AU) (BU) (BG) (AG) (BG) (BG) (AG) (AU) (BU)
                 (AG) (BU) (AU) (AU) (BU) (AG) (AG) (AU) (BU) (AG)
                 (BG) (AU) (BU) (BU) (BG) (BG) (AG) (BG) (AG) (AU)
                 (AG) (BG) (BU) (AU) (BU) (BU) (AU) (AG) (BG) (AU)
                 (AG) (BU) (BG) (AG) (AG) (AU) (BU) (BU) (AU) (BU)
                 (AG) (BG) (AG) (AU) (BU) (BG) (BU) (AG) (BG) (BU)
                 (AU) (AG) (BG) (AG) (AU) (BG) (AG) (BU) (BU) (AU)
                 (AG) (AG) (BG) (BU) (BU) (AU) (BG) (AG) (BU) (AU)
                 (BG) (AG) (BU)
 The electronic state is 1-AG.
 Alpha  occ. eigenvalues --  -11.24162 -11.24140 -11.24064 -11.24023 -11.23862
 Alpha  occ. eigenvalues --  -11.23849  -1.15312  -1.01684  -1.01332  -0.82427
 Alpha  occ. eigenvalues --   -0.81953  -0.70973  -0.64565  -0.61012  -0.59194
 Alpha  occ. eigenvalues --   -0.58264  -0.50123  -0.49974  -0.49046  -0.33334
 Alpha  occ. eigenvalues --   -0.33070
 Alpha virt. eigenvalues --    0.04200   0.04939   0.04960   0.06743   0.06765
 Alpha virt. eigenvalues --    0.09915   0.10184   0.10482   0.10946   0.12605
 Alpha virt. eigenvalues --    0.14809   0.14918   0.16314   0.18292   0.18477
 Alpha virt. eigenvalues --    0.18590   0.18633   0.19166   0.21125   0.21163
 Alpha virt. eigenvalues --    0.21248   0.21359   0.21428   0.21725   0.21892
 Alpha virt. eigenvalues --    0.22471   0.24381   0.25479   0.26216   0.26273
 Alpha virt. eigenvalues --    0.28996   0.29070   0.31890   0.34405   0.40433
 Alpha virt. eigenvalues --    0.40560   0.41002   0.42303   0.42474   0.49368
 Alpha virt. eigenvalues --    0.49425   0.50991   0.51405   0.51521   0.60639
 Alpha virt. eigenvalues --    0.61548   0.63254   0.72865   0.74010   0.74105
 Alpha virt. eigenvalues --    0.75940   0.76340   0.76896   0.77069   0.77542
 Alpha virt. eigenvalues --    0.80883   0.80908   0.82581   0.88809   0.92360
 Alpha virt. eigenvalues --    0.92591   0.94378   0.94804   0.97434   0.98826
 Alpha virt. eigenvalues --    0.99050   1.00414   1.01073   1.01850   1.04423
 Alpha virt. eigenvalues --    1.11677   1.12061   1.12546   1.17616   1.18487
 Alpha virt. eigenvalues --    1.34458   1.37485   1.37889   1.39301   1.39918
 Alpha virt. eigenvalues --    1.54042   1.60435   1.71224   1.77892   1.79302
 Alpha virt. eigenvalues --    1.81401   1.83820   1.84283   1.84630   1.89512
 Alpha virt. eigenvalues --    1.90654   1.93399   1.94652   1.97997   2.03975
 Alpha virt. eigenvalues --    2.04445   2.05162   2.09668   2.11362   2.13067
 Alpha virt. eigenvalues --    2.15517   2.17189   2.30504   2.30532   2.31827
 Alpha virt. eigenvalues --    2.34762   2.35410   2.39377   2.40193   2.53407
 Alpha virt. eigenvalues --    2.57746   2.61586   2.76764   2.77280   2.81192
 Alpha virt. eigenvalues --    2.82662   2.83681   2.94214   2.95964   2.96641
 Alpha virt. eigenvalues --    3.00557   3.02142   3.02591   3.04549   3.04746
 Alpha virt. eigenvalues --    3.10673   3.12065   3.18476   3.18907   3.33340
 Alpha virt. eigenvalues --    3.33957   3.34109   3.35601   3.46637   3.52826
 Alpha virt. eigenvalues --    3.76282   3.76478   3.84463   3.89394   3.89457
 Alpha virt. eigenvalues --    3.93293   4.41450   4.42501   4.42651   4.62625
 Alpha virt. eigenvalues --    4.63829   4.90253  24.76217  25.11022  25.11418
 Alpha virt. eigenvalues --   25.24522  25.25462  25.26366
          Condensed to atoms (all electrons):
              1          2          3          4          5          6
     1  C    6.379466  -0.266677  -0.314363   0.665328  -0.314363  -0.266677
     2  C   -0.266677   6.365903  -0.245138  -0.314363   0.656161  -0.295750
     3  C   -0.314363  -0.245138   6.365903  -0.266677  -0.295750   0.656161
     4  C    0.665328  -0.314363  -0.266677   6.379466  -0.266677  -0.314363
     5  C   -0.314363   0.656161  -0.295750  -0.266677   6.365903  -0.245138
     6  C   -0.266677  -0.295750   0.656161  -0.314363  -0.245138   6.365903
     7  H    0.524317  -0.123515  -0.042413   0.080316  -0.042413  -0.123515
     8  H   -0.121611   0.515391  -0.111936  -0.042870   0.076062  -0.038918
     9  H   -0.042870  -0.111936   0.515391  -0.121611  -0.038918   0.076062
    10  H    0.080316  -0.042413  -0.123515   0.524317  -0.123515  -0.042413
    11  H   -0.042870   0.076062  -0.038918  -0.121611   0.515391  -0.111936
    12  H   -0.121611  -0.038918   0.076062  -0.042870  -0.111936   0.515391
              7          8          9         10         11         12
     1  C    0.524317  -0.121611  -0.042870   0.080316  -0.042870  -0.121611
     2  C   -0.123515   0.515391  -0.111936  -0.042413   0.076062  -0.038918
     3  C   -0.042413  -0.111936   0.515391  -0.123515  -0.038918   0.076062
     4  C    0.080316  -0.042870  -0.121611   0.524317  -0.121611  -0.042870
     5  C   -0.042413   0.076062  -0.038918  -0.123515   0.515391  -0.111936
     6  C   -0.123515  -0.038918   0.076062  -0.042413  -0.111936   0.515391
     7  H    0.600631  -0.018568  -0.004043   0.005034  -0.004043  -0.018568
     8  H   -0.018568   0.590594  -0.015887  -0.004043   0.004619  -0.003445
     9  H   -0.004043  -0.015887   0.590594  -0.018568  -0.003445   0.004619
    10  H    0.005034  -0.004043  -0.018568   0.600631  -0.018568  -0.004043
    11  H   -0.004043   0.004619  -0.003445  -0.018568   0.590594  -0.015887
    12  H   -0.018568  -0.003445   0.004619  -0.004043  -0.015887   0.590594
 Mulliken atomic charges:
              1
     1  C   -0.158386
     2  C   -0.174808
     3  C   -0.174808
     4  C   -0.158386
     5  C   -0.174808
     6  C   -0.174808
     7  H    0.166778
     8  H    0.170612
     9  H    0.170612
    10  H    0.166778
    11  H    0.170612
    12  H    0.170612
 Sum of Mulliken atomic charges =   0.00000
 Mulliken charges with hydrogens summed into heavy atoms:
              1
     1  C    0.008393
     2  C   -0.004196
     3  C   -0.004196
     4  C    0.008393
     5  C   -0.004196
     6  C   -0.004196
 Sum of Mulliken charges with hydrogens summed into heavy atoms =   0.00000
 Electronic spatial extent (au):  <R**2>=            459.0306
 Charge=              0.0000 electrons
 Dipole moment (field-independent basis, Debye):
    X=              0.0000    Y=              0.0000    Z=              0.0000  Tot=              0.0000
 Quadrupole moment (field-independent basis, Debye-Ang):
   XX=            -40.7941   YY=            -33.0798   ZZ=            -32.6598
   XY=              0.0083   XZ=              0.0000   YZ=              0.0000
 Traceless Quadrupole moment (field-independent basis, Debye-Ang):
   XX=             -5.2829   YY=              2.4315   ZZ=              2.8514
   XY=              0.0083   XZ=              0.0000   YZ=              0.0000
 Octapole moment (field-independent basis, Debye-Ang**2):
  XXX=              0.0000  YYY=              0.0000  ZZZ=              0.0000  XYY=              0.0000
  XXY=              0.0000  XXZ=              0.0000  XZZ=              0.0000  YZZ=              0.0000
  YYZ=              0.0000  XYZ=              0.0000
 Hexadecapole moment (field-independent basis, Debye-Ang**3):
 XXXX=            -53.5910 YYYY=           -279.5643 ZZZZ=           -283.4928 XXXY=              0.0065
 XXXZ=              0.0000 YYYX=              1.6062 YYYZ=              0.0000 ZZZX=              0.0000
 ZZZY=              0.0000 XXYY=            -65.6717 XXZZ=            -67.0015 YYZZ=            -92.6813
 XXYZ=              0.0000 YYXZ=              0.0000 ZZXY=             -1.5828
 N-N= 2.034248182065D+02 E-N=-9.444147635328D+02  KE= 2.314408679976D+02
 Symmetry AG   KE= 7.669474330889D+01
 Symmetry BG   KE= 3.993271631466D+01
 Symmetry AU   KE= 4.057664516271D+01
 Symmetry BU   KE= 7.423676321129D+01
 No NMR shielding tensors so no spin-rotation constants.
 Leave Link  601 at Fri Dec  3 12:06:38 2021, MaxMem=  498073600 cpu:       2.0
 (Enter /apps/software//g09/l9999.exe)
 1\1\GINC-DLT01\SP\RMP2-FC\6-311++G(d,p)\C6H6\ITAMAR\03-Dec-2021\0\\#P 
 MP2/6-311++G** DENSITY=MP2\\Chair-25\\0,1\C,0,0.,1.363426,-0.098606\C,
 0,1.214164,0.694607,0.101679\C,0,1.214164,-0.694607,-0.101679\C,0,0.,-
 1.363426,0.098606\C,0,-1.214164,-0.694607,-0.101679\C,0,-1.214164,0.69
 4607,0.101679\H,0,0.,2.450521,-0.084271\H,0,2.145278,1.251992,0.081689
 \H,0,2.145278,-1.251992,-0.081689\H,0,0.,-2.450521,0.084271\H,0,-2.145
 278,-1.251992,-0.081689\H,0,-2.145278,1.251992,0.081689\\Version=EM64L
 -G09RevA.02\State=1-AG\HF=-230.7219597\MP2=-231.5588959\RMSD=5.633e-09
 \Dipole=0.,0.,0.\Quadrupole=2.1199627,1.8077381,-3.9277008,0.,0.,0.002
 3736\PG=C02H [SGH(C2H2),X(C4H4)]\\@


 You can't act like a skunk without someone's getting wind of it.
 -- Lorene Workman
 Job cpu time:  0 days  0 hours  4 minutes 37.6 seconds.
 File lengths (MBytes):  RWF=     14 Int=      0 D2E=      0 Chk=      4 Scr=      1
 Normal termination of Gaussian 09 at Fri Dec  3 12:06:38 2021.
