BH                                                                      
SP        RMP2-FC                                                     6-311++G(d,p)       
Number of atoms                            I               10
Info1-9                                    I   N=           9
          24          19           0           0           0         110
           1           2           1
Charge                                     I                0
Multiplicity                               I                1
Number of electrons                        I               34
Number of alpha electrons                  I               17
Number of beta electrons                   I               17
Number of basis functions                  I              145
Number of independent functions            I              145
Number of point charges in /Mol/           I                0
Number of translation vectors              I                0
Atomic numbers                             I   N=          10
           6           1           6           1           6           1
           6           1           5           1
Nuclear charges                            R   N=          10
  6.00000000E+00  1.00000000E+00  6.00000000E+00  1.00000000E+00  6.00000000E+00
  1.00000000E+00  6.00000000E+00  1.00000000E+00  5.00000000E+00  1.00000000E+00
Current cartesian coordinates              R   N=          30
  2.23483167E+00  1.02184324E+00  0.00000000E+00  4.03819682E+00  1.98728281E+00
  0.00000000E+00  0.00000000E+00  2.22398588E+00  0.00000000E+00 -2.97445622E-01
  4.25474965E+00  0.00000000E+00 -1.38248282E+00 -2.03159509E+00  0.00000000E+00
 -2.63693492E+00 -3.64731456E+00  0.00000000E+00 -2.19242891E+00  3.73316845E-01
  0.00000000E+00 -4.14444903E+00  1.00742673E+00  0.00000000E+00  1.60526787E+00
 -1.90171054E+00  0.00000000E+00  3.05477378E+00 -3.61889714E+00  0.00000000E+00
Force Field                                I                0
Int Atom Types                             I   N=          10
           0           0           0           0           0           0
           0           0           0           0
MM charges                                 R   N=          10
  0.00000000E+00  0.00000000E+00  0.00000000E+00  0.00000000E+00  0.00000000E+00
  0.00000000E+00  0.00000000E+00  0.00000000E+00  0.00000000E+00  0.00000000E+00
Integer atomic weights                     I   N=          10
          12           1          12           1          12           1
          12           1          11           1
Real atomic weights                        R   N=          10
  1.20000000E+01  1.00782504E+00  1.20000000E+01  1.00782504E+00  1.20000000E+01
  1.00782504E+00  1.20000000E+01  1.00782504E+00  1.10093053E+01  1.00782504E+00
Atom fragment info                         I   N=          10
           0           0           0           0           0           0
           0           0           0           0
Atom residue num                           I   N=          10
           0           0           0           0           0           0
           0           0           0           0
Nuclear spins                              I   N=          10
           0           1           0           1           0           1
           0           1           3           1
Nuclear ZEff                               R   N=          10
 -3.60000000E+00 -1.00000000E+00 -3.60000000E+00 -1.00000000E+00 -3.60000000E+00
 -1.00000000E+00 -3.60000000E+00 -1.00000000E+00 -2.75000000E+00 -1.00000000E+00
Nuclear QMom                               R   N=          10
  0.00000000E+00  0.00000000E+00  0.00000000E+00  0.00000000E+00  0.00000000E+00
  0.00000000E+00  0.00000000E+00  0.00000000E+00  4.05900000E+00  0.00000000E+00
Nuclear GFac                               R   N=          10
  0.00000000E+00  2.79284600E+00  0.00000000E+00  2.79284600E+00  0.00000000E+00
  2.79284600E+00  0.00000000E+00  2.79284600E+00  2.68863700E+00  2.79284600E+00
MicOpt                                     I   N=          10
          -1          -1          -1          -1          -1          -1
          -1          -1          -1          -1
Number of contracted shells                I               55
Number of primitive shells                 I              100
Pure/Cartesian d shells                    I                0
Pure/Cartesian f shells                    I                0
Highest angular momentum                   I                2
Largest degree of contraction              I                6
Shell types                                I   N=          55
           0          -1          -1          -1          -1          -2
           0           0           0           0           1           0
          -1          -1          -1          -1          -2           0
           0           0           0           1           0          -1
          -1          -1          -1          -2           0           0
           0           0           1           0          -1          -1
          -1          -1          -2           0           0           0
           0           1           0          -1          -1          -1
          -1          -2           0           0           0           0
           1
Number of primitives per shell             I   N=          55
           6           3           1           1           1           1
           3           1           1           1           1           6
           3           1           1           1           1           3
           1           1           1           1           6           3
           1           1           1           1           3           1
           1           1           1           6           3           1
           1           1           1           3           1           1
           1           1           6           3           1           1
           1           1           3           1           1           1
           1
Shell to atom map                          I   N=          55
           1           1           1           1           1           1
           2           2           2           2           2           3
           3           3           3           3           3           4
           4           4           4           4           5           5
           5           5           5           5           6           6
           6           6           6           7           7           7
           7           7           7           8           8           8
           8           8           9           9           9           9
           9           9          10          10          10          10
          10
Primitive exponents                        R   N=         100
  4.56324000E+03  6.82024000E+02  1.54973000E+02  4.44553000E+01  1.30290000E+01
  1.82773000E+00  2.09642000E+01  4.80331000E+00  1.45933000E+00  4.83456000E-01
  1.45585000E-01  4.38000000E-02  6.26000000E-01  3.38650000E+01  5.09479000E+00
  1.15879000E+00  3.25840000E-01  1.02741000E-01  3.60000000E-02  7.50000000E-01
  4.56324000E+03  6.82024000E+02  1.54973000E+02  4.44553000E+01  1.30290000E+01
  1.82773000E+00  2.09642000E+01  4.80331000E+00  1.45933000E+00  4.83456000E-01
  1.45585000E-01  4.38000000E-02  6.26000000E-01  3.38650000E+01  5.09479000E+00
  1.15879000E+00  3.25840000E-01  1.02741000E-01  3.60000000E-02  7.50000000E-01
  4.56324000E+03  6.82024000E+02  1.54973000E+02  4.44553000E+01  1.30290000E+01
  1.82773000E+00  2.09642000E+01  4.80331000E+00  1.45933000E+00  4.83456000E-01
  1.45585000E-01  4.38000000E-02  6.26000000E-01  3.38650000E+01  5.09479000E+00
  1.15879000E+00  3.25840000E-01  1.02741000E-01  3.60000000E-02  7.50000000E-01
  4.56324000E+03  6.82024000E+02  1.54973000E+02  4.44553000E+01  1.30290000E+01
  1.82773000E+00  2.09642000E+01  4.80331000E+00  1.45933000E+00  4.83456000E-01
  1.45585000E-01  4.38000000E-02  6.26000000E-01  3.38650000E+01  5.09479000E+00
  1.15879000E+00  3.25840000E-01  1.02741000E-01  3.60000000E-02  7.50000000E-01
  2.85889000E+03  4.28140000E+02  9.75282000E+01  2.79693000E+01  8.21577000E+00
  1.11278000E+00  1.32415000E+01  3.00166000E+00  9.12856000E-01  3.15454000E-01
  9.88563000E-02  3.15000000E-02  4.01000000E-01  3.38650000E+01  5.09479000E+00
  1.15879000E+00  3.25840000E-01  1.02741000E-01  3.60000000E-02  7.50000000E-01
Contraction coefficients                   R   N=         100
  1.96665025E-03  1.52306019E-02  7.61269097E-02  2.60801033E-01  6.16462078E-01
  2.21006028E-01  1.14660081E-01  9.19999648E-01 -3.03068213E-03  1.00000000E+00
  1.00000000E+00  1.00000000E+00  1.00000000E+00  2.54938145E-02  1.90373109E-01
  8.52161486E-01  1.00000000E+00  1.00000000E+00  1.00000000E+00  1.00000000E+00
  1.96665025E-03  1.52306019E-02  7.61269097E-02  2.60801033E-01  6.16462078E-01
  2.21006028E-01  1.14660081E-01  9.19999648E-01 -3.03068213E-03  1.00000000E+00
  1.00000000E+00  1.00000000E+00  1.00000000E+00  2.54938145E-02  1.90373109E-01
  8.52161486E-01  1.00000000E+00  1.00000000E+00  1.00000000E+00  1.00000000E+00
  1.96665025E-03  1.52306019E-02  7.61269097E-02  2.60801033E-01  6.16462078E-01
  2.21006028E-01  1.14660081E-01  9.19999648E-01 -3.03068213E-03  1.00000000E+00
  1.00000000E+00  1.00000000E+00  1.00000000E+00  2.54938145E-02  1.90373109E-01
  8.52161486E-01  1.00000000E+00  1.00000000E+00  1.00000000E+00  1.00000000E+00
  1.96665025E-03  1.52306019E-02  7.61269097E-02  2.60801033E-01  6.16462078E-01
  2.21006028E-01  1.14660081E-01  9.19999648E-01 -3.03068213E-03  1.00000000E+00
  1.00000000E+00  1.00000000E+00  1.00000000E+00  2.54938145E-02  1.90373109E-01
  8.52161486E-01  1.00000000E+00  1.00000000E+00  1.00000000E+00  1.00000000E+00
  2.15374907E-03  1.65822928E-02  8.21869644E-02  2.76617880E-01  6.29315727E-01
  1.73769925E-01  1.17442942E-01  9.18001549E-01 -2.65104870E-03  1.00000000E+00
  1.00000000E+00  1.00000000E+00  1.00000000E+00  2.54938145E-02  1.90373109E-01
  8.52161486E-01  1.00000000E+00  1.00000000E+00  1.00000000E+00  1.00000000E+00
P(S=P) Contraction coefficients            R   N=         100
  0.00000000E+00  0.00000000E+00  0.00000000E+00  0.00000000E+00  0.00000000E+00
  0.00000000E+00  4.02486927E-02  2.37593957E-01  8.15853851E-01  1.00000000E+00
  1.00000000E+00  1.00000000E+00  0.00000000E+00  0.00000000E+00  0.00000000E+00
  0.00000000E+00  0.00000000E+00  0.00000000E+00  0.00000000E+00  0.00000000E+00
  0.00000000E+00  0.00000000E+00  0.00000000E+00  0.00000000E+00  0.00000000E+00
  0.00000000E+00  4.02486927E-02  2.37593957E-01  8.15853851E-01  1.00000000E+00
  1.00000000E+00  1.00000000E+00  0.00000000E+00  0.00000000E+00  0.00000000E+00
  0.00000000E+00  0.00000000E+00  0.00000000E+00  0.00000000E+00  0.00000000E+00
  0.00000000E+00  0.00000000E+00  0.00000000E+00  0.00000000E+00  0.00000000E+00
  0.00000000E+00  4.02486927E-02  2.37593957E-01  8.15853851E-01  1.00000000E+00
  1.00000000E+00  1.00000000E+00  0.00000000E+00  0.00000000E+00  0.00000000E+00
  0.00000000E+00  0.00000000E+00  0.00000000E+00  0.00000000E+00  0.00000000E+00
  0.00000000E+00  0.00000000E+00  0.00000000E+00  0.00000000E+00  0.00000000E+00
  0.00000000E+00  4.02486927E-02  2.37593957E-01  8.15853851E-01  1.00000000E+00
  1.00000000E+00  1.00000000E+00  0.00000000E+00  0.00000000E+00  0.00000000E+00
  0.00000000E+00  0.00000000E+00  0.00000000E+00  0.00000000E+00  0.00000000E+00
  0.00000000E+00  0.00000000E+00  0.00000000E+00  0.00000000E+00  0.00000000E+00
  0.00000000E+00  4.18099989E-02  2.36574994E-01  8.16213978E-01  1.00000000E+00
  1.00000000E+00  1.00000000E+00  0.00000000E+00  0.00000000E+00  0.00000000E+00
  0.00000000E+00  0.00000000E+00  0.00000000E+00  0.00000000E+00  0.00000000E+00
Coordinates of each shell                  R   N=         165
  2.23483167E+00  1.02184324E+00  0.00000000E+00  2.23483167E+00  1.02184324E+00
  0.00000000E+00  2.23483167E+00  1.02184324E+00  0.00000000E+00  2.23483167E+00
  1.02184324E+00  0.00000000E+00  2.23483167E+00  1.02184324E+00  0.00000000E+00
  2.23483167E+00  1.02184324E+00  0.00000000E+00  4.03819682E+00  1.98728281E+00
  0.00000000E+00  4.03819682E+00  1.98728281E+00  0.00000000E+00  4.03819682E+00
  1.98728281E+00  0.00000000E+00  4.03819682E+00  1.98728281E+00  0.00000000E+00
  4.03819682E+00  1.98728281E+00  0.00000000E+00  0.00000000E+00  2.22398588E+00
  0.00000000E+00  0.00000000E+00  2.22398588E+00  0.00000000E+00  0.00000000E+00
  2.22398588E+00  0.00000000E+00  0.00000000E+00  2.22398588E+00  0.00000000E+00
  0.00000000E+00  2.22398588E+00  0.00000000E+00  0.00000000E+00  2.22398588E+00
  0.00000000E+00 -2.97445622E-01  4.25474965E+00  0.00000000E+00 -2.97445622E-01
  4.25474965E+00  0.00000000E+00 -2.97445622E-01  4.25474965E+00  0.00000000E+00
 -2.97445622E-01  4.25474965E+00  0.00000000E+00 -2.97445622E-01  4.25474965E+00
  0.00000000E+00 -1.38248282E+00 -2.03159509E+00  0.00000000E+00 -1.38248282E+00
 -2.03159509E+00  0.00000000E+00 -1.38248282E+00 -2.03159509E+00  0.00000000E+00
 -1.38248282E+00 -2.03159509E+00  0.00000000E+00 -1.38248282E+00 -2.03159509E+00
  0.00000000E+00 -1.38248282E+00 -2.03159509E+00  0.00000000E+00 -2.63693492E+00
 -3.64731456E+00  0.00000000E+00 -2.63693492E+00 -3.64731456E+00  0.00000000E+00
 -2.63693492E+00 -3.64731456E+00  0.00000000E+00 -2.63693492E+00 -3.64731456E+00
  0.00000000E+00 -2.63693492E+00 -3.64731456E+00  0.00000000E+00 -2.19242891E+00
  3.73316845E-01  0.00000000E+00 -2.19242891E+00  3.73316845E-01  0.00000000E+00
 -2.19242891E+00  3.73316845E-01  0.00000000E+00 -2.19242891E+00  3.73316845E-01
  0.00000000E+00 -2.19242891E+00  3.73316845E-01  0.00000000E+00 -2.19242891E+00
  3.73316845E-01  0.00000000E+00 -4.14444903E+00  1.00742673E+00  0.00000000E+00
 -4.14444903E+00  1.00742673E+00  0.00000000E+00 -4.14444903E+00  1.00742673E+00
  0.00000000E+00 -4.14444903E+00  1.00742673E+00  0.00000000E+00 -4.14444903E+00
  1.00742673E+00  0.00000000E+00  1.60526787E+00 -1.90171054E+00  0.00000000E+00
  1.60526787E+00 -1.90171054E+00  0.00000000E+00  1.60526787E+00 -1.90171054E+00
  0.00000000E+00  1.60526787E+00 -1.90171054E+00  0.00000000E+00  1.60526787E+00
 -1.90171054E+00  0.00000000E+00  1.60526787E+00 -1.90171054E+00  0.00000000E+00
  3.05477378E+00 -3.61889714E+00  0.00000000E+00  3.05477378E+00 -3.61889714E+00
  0.00000000E+00  3.05477378E+00 -3.61889714E+00  0.00000000E+00  3.05477378E+00
 -3.61889714E+00  0.00000000E+00  3.05477378E+00 -3.61889714E+00  0.00000000E+00
Constraint Structure                       R   N=          30
  2.23483167E+00  1.02184324E+00  0.00000000E+00  4.03819682E+00  1.98728281E+00
  0.00000000E+00  0.00000000E+00  2.22398588E+00  0.00000000E+00 -2.97445622E-01
  4.25474965E+00  0.00000000E+00 -1.38248282E+00 -2.03159509E+00  0.00000000E+00
 -2.63693492E+00 -3.64731456E+00  0.00000000E+00 -2.19242891E+00  3.73316845E-01
  0.00000000E+00 -4.14444903E+00  1.00742673E+00  0.00000000E+00  1.60526787E+00
 -1.90171054E+00  0.00000000E+00  3.05477378E+00 -3.61889714E+00  0.00000000E+00
Num ILSW                                   I              100
ILSW                                       I   N=         100
           0           0           0           0           2           0
           0           0           0           0           0          -1
           0           0           0           0           0           0
           0           0           0           0           0           0
           1           0           0           0           0           0
           0           0      100000           0          -1           0
           0           0           0           0           0           0
           0           0           0           1           0           0
           0           0           1           0           0           0
           0           0           4          40           0           0
           0           0           0           0           0           0
           0           0           0           0           0           0
           0           0           0           0           0           0
           0           0           0           0           0           0
           0           0           0           0           0           0
           0           0           0           0           0           0
           0           0           0           0
Num RLSW                                   I               40
RLSW                                       R   N=          40
  1.00000000E+00  1.00000000E+00  1.00000000E+00  1.00000000E+00  1.00000000E+00
  0.00000000E+00  0.00000000E+00  1.00000000E+00  0.00000000E+00  0.00000000E+00
  0.00000000E+00  0.00000000E+00  1.00000000E+00  0.00000000E+00  0.00000000E+00
  0.00000000E+00  0.00000000E+00  1.00000000E+00  0.00000000E+00  0.00000000E+00
  0.00000000E+00  0.00000000E+00  1.00000000E+00  0.00000000E+00  0.00000000E+00
  0.00000000E+00  0.00000000E+00  1.00000000E+00  0.00000000E+00  0.00000000E+00
  0.00000000E+00  0.00000000E+00  0.00000000E+00  0.00000000E+00  0.00000000E+00
  0.00000000E+00  0.00000000E+00  0.00000000E+00  1.00000000E+00  1.00000000E+00
MxBond                                     I                3
NBond                                      I   N=          10
           3           1           3           1           3           1
           3           1           3           1
IBond                                      I   N=          30
           2           3           9           1           0           0
           1           4           7           3           0           0
           6           7           9           5           0           0
           3           5           8           7           0           0
           1           5          10           9           0           0
RBond                                      R   N=          30
  1.00000000E+00  2.00000000E+00  1.00000000E+00  1.00000000E+00  0.00000000E+00
  0.00000000E+00  2.00000000E+00  1.00000000E+00  1.00000000E+00  1.00000000E+00
  0.00000000E+00  0.00000000E+00  1.00000000E+00  2.00000000E+00  1.00000000E+00
  1.00000000E+00  0.00000000E+00  0.00000000E+00  1.00000000E+00  2.00000000E+00
  1.00000000E+00  1.00000000E+00  0.00000000E+00  0.00000000E+00  1.00000000E+00
  1.00000000E+00  1.00000000E+00  1.00000000E+00  0.00000000E+00  0.00000000E+00
Virial Ratio                               R      2.001081034511321E+00
SCF Energy                                 R     -1.790498843325898E+02
MP2 Energy                                 R     -1.796767185458688E+02
Total Energy                               R     -1.796767185458688E+02
Post-SCF wavefunction norm                 R      1.111700519563135E+00
RMS Density                                R      9.897885552552240E-09
External E-field                           R   N=          35
  0.00000000E+00  0.00000000E+00  0.00000000E+00  0.00000000E+00  0.00000000E+00
  0.00000000E+00  0.00000000E+00  0.00000000E+00  0.00000000E+00  0.00000000E+00
  0.00000000E+00  0.00000000E+00  0.00000000E+00  0.00000000E+00  0.00000000E+00
  0.00000000E+00  0.00000000E+00  0.00000000E+00  0.00000000E+00  0.00000000E+00
  0.00000000E+00  0.00000000E+00  0.00000000E+00  0.00000000E+00  0.00000000E+00
  0.00000000E+00  0.00000000E+00  0.00000000E+00  0.00000000E+00  0.00000000E+00
  0.00000000E+00  0.00000000E+00  0.00000000E+00  0.00000000E+00  0.00000000E+00
IOpCl                                      I                0
IROHF                                      I                0
Alpha Orbital Energies                     R   N=         145
 -1.12548666E+01 -1.12542353E+01 -1.12069540E+01 -1.12069335E+01 -7.60468641E+00
 -1.11626762E+00 -9.71835196E-01 -8.39205922E-01 -7.13664414E-01 -6.96204161E-01
 -6.42256906E-01 -5.70889960E-01 -5.17209708E-01 -4.71083793E-01 -4.62922018E-01
 -4.56015194E-01 -3.17555323E-01  2.33397995E-02  4.12434703E-02  5.06354471E-02
  5.87101517E-02  7.10916417E-02  7.94392354E-02  8.63543927E-02  8.92894638E-02
  1.07673054E-01  1.39464904E-01  1.49746635E-01  1.52460616E-01  1.59785440E-01
  1.68298705E-01  1.82225335E-01  1.82733786E-01  1.88075347E-01  1.91852787E-01
  1.98235162E-01  2.11010118E-01  2.17234646E-01  2.24722833E-01  2.37561844E-01
  2.48745229E-01  2.56355634E-01  2.63242242E-01  2.76966084E-01  2.79869322E-01
  3.39560811E-01  3.60953732E-01  3.72074478E-01  3.87770535E-01  4.08573974E-01
  4.35697159E-01  4.52844412E-01  5.13604499E-01  5.17884219E-01  5.64820713E-01
  6.02589831E-01  6.22645859E-01  6.42631753E-01  6.78660730E-01  7.03647073E-01
  7.11456549E-01  7.35773972E-01  7.46123507E-01  7.50902653E-01  8.23356304E-01
  8.35606927E-01  8.35693799E-01  8.43495336E-01  8.97188336E-01  9.39789124E-01
  9.40985904E-01  9.73218995E-01  9.81757541E-01  9.83591679E-01  9.88378887E-01
  1.02183048E+00  1.05687426E+00  1.07458586E+00  1.09847858E+00  1.11017170E+00
  1.20792139E+00  1.20916576E+00  1.29703734E+00  1.32454251E+00  1.36454220E+00
  1.39051221E+00  1.45123548E+00  1.53998110E+00  1.68903130E+00  1.75224006E+00
  1.75427810E+00  1.80042394E+00  1.82585212E+00  1.86675905E+00  1.89753774E+00
  1.89969154E+00  1.92077717E+00  1.96598821E+00  2.03429569E+00  2.03893358E+00
  2.09699370E+00  2.11818585E+00  2.12145448E+00  2.12387653E+00  2.21396140E+00
  2.23875827E+00  2.27983417E+00  2.29495894E+00  2.40098986E+00  2.48458758E+00
  2.49116216E+00  2.51392164E+00  2.52212374E+00  2.55164517E+00  2.65612969E+00
  2.77571404E+00  2.87287215E+00  2.90096257E+00  2.92938551E+00  2.94637249E+00
  2.98281934E+00  3.01231778E+00  3.04418839E+00  3.05073634E+00  3.08637834E+00
  3.10748378E+00  3.11512355E+00  3.17782449E+00  3.31335243E+00  3.36761970E+00
  3.44223263E+00  3.54474586E+00  3.61280855E+00  3.88262103E+00  3.88849045E+00
  4.02722832E+00  4.23048149E+00  4.42853490E+00  4.44664341E+00  4.76260844E+00
  1.55211760E+01  2.48326273E+01  2.49361362E+01  2.53739241E+01  2.54218549E+01
Alpha MO coefficients                      R   N=       21025
  6.65701947E-03  5.47550004E-03 -1.48420255E-04  9.54748316E-05  0.00000000E+00
  2.69508924E-04  5.79900029E-05 -4.00193134E-05  0.00000000E+00 -8.78917025E-04
  3.86197700E-04  1.98809565E-04  0.00000000E+00 -3.07441230E-04  3.36176010E-04
  1.56694342E-04  0.00000000E+00  1.04291881E-04  0.00000000E+00  0.00000000E+00
 -1.21179198E-05 -1.42510504E-05  1.19965012E-05 -7.25445986E-06 -2.09966357E-04
 -2.27102734E-04 -2.50147185E-05  1.10004456E-05  0.00000000E+00  3.98315564E-01
  3.29828296E-01 -4.74237543E-04  4.10261785E-05  0.00000000E+00  3.14170084E-03
  3.68471033E-04 -4.28152956E-04  0.00000000E+00 -2.46770296E-04  8.03031314E-06
 -2.76845989E-05  0.00000000E+00  1.06771707E-03  1.59526848E-04 -7.74641685E-04
  0.00000000E+00 -3.14478506E-04  0.00000000E+00  0.00000000E+00  1.39960182E-04
 -1.40525090E-04  2.89119974E-04  7.66731591E-05  1.81418621E-04  4.83920045E-04
  2.08703110E-05 -8.53140201E-05  0.00000000E+00  6.65582466E-03  5.47451353E-03
 -6.91941104E-05  1.62306824E-04  0.00000000E+00  2.69490483E-04  2.97067324E-05
 -6.38360326E-05  0.00000000E+00 -8.78965140E-04 -2.60810886E-04 -3.47417635E-04
  0.00000000E+00 -3.06711579E-04 -2.11006197E-04 -3.05001034E-04  0.00000000E+00
  1.04274308E-04  0.00000000E+00  0.00000000E+00  6.70016011E-06 -1.74610154E-05
  1.19962284E-05 -7.24881779E-06 -2.10014994E-04 -2.27159839E-04 -6.64417251E-06
  2.65086446E-05  0.00000000E+00  3.98244495E-01  3.29769430E-01  3.91743123E-05
  4.74324621E-04  0.00000000E+00  3.14121265E-03  3.60254919E-04 -4.34939348E-04
  0.00000000E+00 -2.46621199E-04  2.59966977E-05 -1.26613454E-05  0.00000000E+00
  1.06671064E-03  7.36561071E-04 -2.87003269E-04  0.00000000E+00 -3.14425576E-04
  0.00000000E+00  0.00000000E+00 -1.78554016E-04 -8.61999146E-05  2.89070974E-04
  7.67124343E-05  1.81366575E-04  4.83786685E-04  8.06077580E-05 -3.48890371E-05
  0.00000000E+00  6.68472881E-06 -1.29194975E-05 -4.80386965E-06  5.69445983E-06
  0.00000000E+00  9.63989816E-05 -6.15152406E-05  7.28613866E-05  0.00000000E+00
  5.02625245E-04 -5.02610775E-04  5.95446034E-04  0.00000000E+00  2.13344131E-04
  9.35767308E-04 -1.10860733E-03  0.00000000E+00 -8.79187896E-06  0.00000000E+00
  0.00000000E+00 -3.82726252E-06 -2.24992770E-05  4.35422155E-06 -9.93219909E-06
  6.65881884E-04 -1.88665057E-03 -7.58208078E-06  8.98131073E-06  0.00000000E+00
 -6.86978092E-03 -5.67327070E-03  1.77415891E-04 -1.00650762E-04  0.00000000E+00
 -9.95023707E-05 -2.70408267E-04  1.09988795E-04  0.00000000E+00 -2.74327043E-04
  3.93579372E-04 -9.49289655E-05  0.00000000E+00  4.10651468E-03 -4.61654607E-04
  6.86363310E-04  0.00000000E+00 -9.93802944E-05  0.00000000E+00  0.00000000E+00
  9.27399225E-05 -5.24922295E-05 -1.06035137E-06  3.65358552E-05 -2.78371782E-04
 -3.24746965E-04 -1.57666565E-05 -6.06426664E-06  0.00000000E+00 -3.98309146E-01
 -3.29917381E-01  3.81478526E-04 -1.32452155E-04  0.00000000E+00 -2.74640246E-03
 -1.00015985E-03  4.55712911E-06  0.00000000E+00  8.37385910E-04  4.95380182E-04
 -3.85058781E-04  0.00000000E+00 -5.64647336E-03 -1.32867323E-03  1.98897936E-03
  0.00000000E+00  2.96188751E-04  0.00000000E+00  0.00000000E+00  9.41867079E-06
  5.10304022E-04 -2.73893788E-04  2.18017906E-04 -2.89010811E-04 -7.43358171E-04
 -4.24752681E-05 -3.56505857E-05  0.00000000E+00  6.87099909E-03  5.67427296E-03
 -6.94540390E-05  1.91822997E-04  0.00000000E+00  9.95498950E-05  6.30430101E-05
 -2.85047257E-04  0.00000000E+00  2.74168544E-04 -2.75635529E-05  4.03867202E-04
  0.00000000E+00 -4.10657818E-03  5.99093636E-04 -5.70372672E-04  0.00000000E+00
  9.93991786E-05  0.00000000E+00  0.00000000E+00  1.04887801E-04  1.88383708E-05
  1.06250099E-06 -3.65375860E-05  2.78334404E-04  3.24706440E-04 -8.62609319E-06
 -1.45203793E-05  0.00000000E+00  3.98380202E-01  3.29976219E-01 -6.65300213E-05
  3.98384133E-04  0.00000000E+00  2.74696502E-03 -1.63328590E-04 -9.86813794E-04
  0.00000000E+00 -8.37430384E-04 -2.96435628E-04  5.52985244E-04  0.00000000E+00
  5.64667391E-03  1.73785711E-03 -1.64374322E-03  0.00000000E+00 -2.96244965E-04
  0.00000000E+00  0.00000000E+00 -1.60033051E-04 -4.84679560E-04  2.73945167E-04
 -2.18003017E-04  2.89042341E-04  7.43442911E-04 -4.22599279E-05 -3.58946192E-05
  0.00000000E+00  6.01320059E-10 -1.18367245E-09 -1.92662864E-05 -1.62621549E-05
  0.00000000E+00  8.82327684E-09  7.70307280E-05  6.50346175E-05  0.00000000E+00
  4.62117806E-08 -9.91576651E-05 -8.36088095E-05  0.00000000E+00  1.87179885E-08
  1.76076562E-04  1.48460563E-04  0.00000000E+00 -7.93805446E-10  0.00000000E+00
  0.00000000E+00 -4.26098819E-05  7.25339670E-06  3.75372235E-10 -7.22124694E-10
  5.95078172E-08 -1.67504109E-07  5.37891316E-06  4.54188456E-06  0.00000000E+00
  3.98558537E-01  3.30098674E-01  1.04967407E-04  2.40217447E-04  0.00000000E+00
  3.10431467E-03 -3.55611816E-04 -9.19158818E-05  0.00000000E+00 -2.67024470E-04
 -9.69663229E-05  1.86966720E-04  0.00000000E+00 -1.08007612E-03 -5.69031019E-04
 -8.67138030E-04  0.00000000E+00 -3.16781405E-04  0.00000000E+00  0.00000000E+00
  1.03961165E-04 -7.20838650E-05  2.85432374E-04 -7.74485939E-05  3.97993464E-04
  7.86733822E-04 -2.12269539E-05  2.06459565E-06  0.00000000E+00 -7.04802554E-03
 -5.87826658E-03  1.68397660E-04 -1.15486262E-04  0.00000000E+00  1.67880251E-04
  9.33236666E-06  1.16686976E-04  0.00000000E+00 -4.43610637E-04 -1.36615439E-04
 -5.03133662E-05  0.00000000E+00  2.30192079E-03  7.00503589E-04 -8.61498085E-04
  0.00000000E+00  9.78346719E-05  0.00000000E+00  0.00000000E+00  8.54445360E-05
 -2.11246347E-06  5.26068060E-06 -8.37774506E-06  1.46845834E-04  2.99713839E-04
  2.02053856E-05 -1.39502876E-06  0.00000000E+00 -3.97960262E-01 -3.29603175E-01
  2.54038664E-04  6.30264467E-05  0.00000000E+00 -3.09951024E-03 -1.50088685E-04
 -3.34524102E-04  0.00000000E+00  2.65208444E-04  1.67139876E-04 -1.27810675E-04
  0.00000000E+00  1.07971780E-03 -9.50108698E-04 -4.15672715E-04  0.00000000E+00
  3.16312858E-04  0.00000000E+00  0.00000000E+00  1.21758436E-04  3.36403329E-05
 -2.85004086E-04  7.72124373E-05 -3.98140714E-04 -7.86727927E-04 -1.52636888E-06
 -2.12590207E-05  0.00000000E+00  7.03781596E-03  5.86974801E-03 -8.55006385E-05
  1.85126073E-04  0.00000000E+00 -1.67653989E-04  1.16557476E-04 -1.04382211E-05
  0.00000000E+00  4.43667281E-04 -7.21991145E-05 -1.26387957E-04  0.00000000E+00
 -2.30071816E-03 -7.31569946E-04  8.34935520E-04  0.00000000E+00 -9.77119393E-05
  0.00000000E+00  0.00000000E+00  8.12830703E-05 -2.62339475E-05 -5.27574776E-06
  8.51590298E-06 -1.46781622E-04 -2.99645999E-04  2.04424188E-06  2.01500157E-05
  0.00000000E+00  5.34971826E-09 -2.99174551E-08  1.43356448E-04  1.21151995E-04
  0.00000000E+00  3.03321282E-07  5.33539999E-05  4.51290157E-05  0.00000000E+00
  5.73875684E-07  1.09119333E-04  9.33240799E-05  0.00000000E+00 -1.22364630E-07
 -2.35158933E-04 -1.99096454E-04  0.00000000E+00  4.76549371E-08  0.00000000E+00
  0.00000000E+00  4.14172757E-05 -6.91627625E-06  3.18758489E-10  1.09512582E-07
  5.06321499E-07 -6.11918890E-07 -2.03524936E-05 -1.71239644E-05  0.00000000E+00
  3.97967839E-01  3.29602041E-01  1.28141454E-04  2.41308954E-04  0.00000000E+00
  3.19679783E-03 -4.27257888E-04 -7.20363596E-05  0.00000000E+00 -1.20775987E-03
  6.48354050E-04  4.94953762E-04  0.00000000E+00 -2.39399627E-04  1.52345085E-04
 -1.88907932E-04  0.00000000E+00 -3.11991627E-04  0.00000000E+00  0.00000000E+00
  1.32466750E-04 -2.90814392E-05  2.84865592E-04 -1.56977341E-04 -9.80793773E-05
  3.60021779E-06 -8.97383999E-06  7.05578085E-07  0.00000000E+00 -6.81205768E-03
 -5.68356346E-03  1.66852289E-04 -8.22940127E-05  0.00000000E+00  1.49848243E-04
  3.70887331E-05  2.14951382E-05  0.00000000E+00  3.71920926E-05  6.55498538E-05
 -2.35544479E-04  0.00000000E+00  8.00107602E-04  1.43902840E-04 -1.03784615E-04
  0.00000000E+00  8.18164218E-05  0.00000000E+00  0.00000000E+00  3.94472160E-05