 Entering Gaussian System, Link 0=g09
 Initial command:
 /apps/software//g09/l1.exe /scratch/itamar/2486.cluster.abaxnet/Gau-13415.inp -scrdir=/scratch/itamar/2486.cluster.abaxnet/
 Entering Link 1 = /apps/software//g09/l1.exe PID=     13416.
  
 Copyright (c) 1988,1990,1992,1993,1995,1998,2003,2009, Gaussian, Inc.
                  All Rights Reserved.
  
 This is part of the Gaussian(R) 09 program.  It is based on
 the Gaussian(R) 03 system (copyright 2003, Gaussian, Inc.),
 the Gaussian(R) 98 system (copyright 1998, Gaussian, Inc.),
 the Gaussian(R) 94 system (copyright 1995, Gaussian, Inc.),
 the Gaussian 92(TM) system (copyright 1992, Gaussian, Inc.),
 the Gaussian 90(TM) system (copyright 1990, Gaussian, Inc.),
 the Gaussian 88(TM) system (copyright 1988, Gaussian, Inc.),
 the Gaussian 86(TM) system (copyright 1986, Carnegie Mellon
 University), and the Gaussian 82(TM) system (copyright 1983,
 Carnegie Mellon University). Gaussian is a federally registered
 trademark of Gaussian, Inc.
  
 This software contains proprietary and confidential information,
 including trade secrets, belonging to Gaussian, Inc.
  
 This software is provided under written license and may be
 used, copied, transmitted, or stored only in accord with that
 written license.
  
 The following legend is applicable only to US Government
 contracts under FAR:
  
                    RESTRICTED RIGHTS LEGEND
  
 Use, reproduction and disclosure by the US Government is
 subject to restrictions as set forth in subparagraphs (a)
 and (c) of the Commercial Computer Software - Restricted
 Rights clause in FAR 52.227-19.
  
 Gaussian, Inc.
 340 Quinnipiac St., Bldg. 40, Wallingford CT 06492
  
  
 ---------------------------------------------------------------
 Warning -- This program may not be used in any manner that
 competes with the business of Gaussian, Inc. or will provide
 assistance to any competitor of Gaussian, Inc.  The licensee
 of this program is prohibited from giving any competitor of
 Gaussian, Inc. access to this program.  By using this program,
 the user acknowledges that Gaussian, Inc. is engaged in the
 business of creating and licensing software in the field of
 computational chemistry and represents and warrants to the
 licensee that it is not a competitor of Gaussian, Inc. and that
 it will not use this program in any manner prohibited above.
 ---------------------------------------------------------------
  

 Cite this work as:
 Gaussian 09, Revision A.02,
 M. J. Frisch, G. W. Trucks, H. B. Schlegel, G. E. Scuseria, 
 M. A. Robb, J. R. Cheeseman, G. Scalmani, V. Barone, B. Mennucci, 
 G. A. Petersson, H. Nakatsuji, M. Caricato, X. Li, H. P. Hratchian, 
 A. F. Izmaylov, J. Bloino, G. Zheng, J. L. Sonnenberg, M. Hada, 
 M. Ehara, K. Toyota, R. Fukuda, J. Hasegawa, M. Ishida, T. Nakajima, 
 Y. Honda, O. Kitao, H. Nakai, T. Vreven, J. A. Montgomery, Jr., 
 J. E. Peralta, F. Ogliaro, M. Bearpark, J. J. Heyd, E. Brothers, 
 K. N. Kudin, V. N. Staroverov, R. Kobayashi, J. Normand, 
 K. Raghavachari, A. Rendell, J. C. Burant, S. S. Iyengar, J. Tomasi, 
 M. Cossi, N. Rega, J. M. Millam, M. Klene, J. E. Knox, J. B. Cross, 
 V. Bakken, C. Adamo, J. Jaramillo, R. Gomperts, R. E. Stratmann, 
 O. Yazyev, A. J. Austin, R. Cammi, C. Pomelli, J. W. Ochterski, 
 R. L. Martin, K. Morokuma, V. G. Zakrzewski, G. A. Voth, 
 P. Salvador, J. J. Dannenberg, S. Dapprich, A. D. Daniels, 
 O. Farkas, J. B. Foresman, J. V. Ortiz, J. Cioslowski, 
 and D. J. Fox, Gaussian, Inc., Wallingford CT, 2009.
 
 ******************************************
 Gaussian 09:  EM64L-G09RevA.02 11-Jun-2009
                 3-Dec-2021 
 ******************************************
 %Mem=3800MB
 %NProcShared=4
 Will use up to    4 processors via shared memory.
 %chk=/home/itamar/Aromaticity-test-set/T12-old-T14-Fulvenes/Penta-CH2/penta-ch2.
 chk
 -----------------------------
 #P MP2/6-311++G** DENSITY=MP2
 -----------------------------
 1/30=1,38=1/1;
 2/12=2,17=6,18=5,40=1/2;
 3/5=4,6=6,7=1111,11=9,16=1,25=1,30=1,71=1/1,2,3;
 4//1;
 5/5=2,38=5/2;
 8/6=4,10=2/1;
 9/15=1,16=-3/6;
 10/5=1,13=10/2;
 6/7=2,8=2,9=2,10=2,22=2/1;
 99/5=1,9=1/99;
 Leave Link    1 at Fri Dec  3 17:32:48 2021, MaxMem=  498073600 cpu:       0.1
 (Enter /apps/software//g09/l101.exe)
 ---------
 Penta-CH2
 ---------
 Symbolic Z-matrix:
 Charge =  0 Multiplicity = 1
 6                     0.        0.75996   0. 
 6                    -1.17832  -0.12563   0. 
 1                    -2.20296   0.21775   0. 
 6                    -0.73726  -1.40368   0. 
 1                    -1.35034  -2.29493   0. 
 6                     1.17832  -0.12563   0. 
 1                     2.20296   0.21776   0. 
 6                     0.73727  -1.40368   0. 
 1                     1.35035  -2.29493   0. 
 6                    -0.00001   2.10183   0. 
 1                    -0.92518   2.66765   0. 
 1                     0.92517   2.66766   0. 
 
 NAtoms=     12 NQM=     12 NQMF=      0 NMic=      0 NMicF=      0 NTot=     12.
                    Isotopes and Nuclear Properties:
 (Nuclear quadrupole moments (NQMom) in fm**2, nuclear magnetic moments (NMagM)
  in nuclear magnetons)

  Atom         1           2           3           4           5           6           7           8           9          10
 IAtWgt=          12          12           1          12           1          12           1          12           1          12
 AtmWgt=  12.0000000  12.0000000   1.0078250  12.0000000   1.0078250  12.0000000   1.0078250  12.0000000   1.0078250  12.0000000
 NucSpn=           0           0           1           0           1           0           1           0           1           0
 AtZEff=   0.0000000   0.0000000   0.0000000   0.0000000   0.0000000   0.0000000   0.0000000   0.0000000   0.0000000   0.0000000
 NQMom=    0.0000000   0.0000000   0.0000000   0.0000000   0.0000000   0.0000000   0.0000000   0.0000000   0.0000000   0.0000000
 NMagM=    0.0000000   0.0000000   2.7928460   0.0000000   2.7928460   0.0000000   2.7928460   0.0000000   2.7928460   0.0000000

  Atom        11          12
 IAtWgt=           1           1
 AtmWgt=   1.0078250   1.0078250
 NucSpn=           1           1
 AtZEff=   0.0000000   0.0000000
 NQMom=    0.0000000   0.0000000
 NMagM=    2.7928460   2.7928460
 Leave Link  101 at Fri Dec  3 17:32:48 2021, MaxMem=  498073600 cpu:       0.2
 (Enter /apps/software//g09/l202.exe)
                          Input orientation:                          
 ---------------------------------------------------------------------
 Center     Atomic      Atomic             Coordinates (Angstroms)
 Number     Number       Type             X           Y           Z
 ---------------------------------------------------------------------
      1          6           0        0.000000    0.759956    0.000000
      2          6           0       -1.178320   -0.125629    0.000000
      3          1           0       -2.202957    0.217754    0.000000
      4          6           0       -0.737261   -1.403679    0.000000
      5          1           0       -1.350344   -2.294931    0.000000
      6          6           0        1.178321   -0.125625    0.000000
      7          1           0        2.202956    0.217760    0.000000
      8          6           0        0.737265   -1.403677    0.000000
      9          1           0        1.350353   -2.294927    0.000000
     10          6           0       -0.000005    2.101827    0.000000
     11          1           0       -0.925181    2.667650    0.000000
     12          1           0        0.925166    2.667658    0.000000
 ---------------------------------------------------------------------
                    Distance matrix (angstroms):
                    1          2          3          4          5
     1  C    0.000000
     2  C    1.474008   0.000000
     3  H    2.268701   1.080645   0.000000
     4  C    2.285797   1.352015   2.185706   0.000000
     5  H    3.340024   2.176112   2.653401   1.081758   0.000000
     6  C    1.474006   2.356641   3.398669   2.302798   3.331672
     7  H    2.268698   3.398668   4.405913   3.357669   4.351960
     8  C    2.285797   2.302797   3.357669   1.474526   2.269900
     9  H    3.340024   3.331672   4.351963   2.269902   2.700697
    10  C    1.341871   2.519918   2.898746   3.582195   4.599445
    11  H    2.120202   2.804726   2.763096   4.075664   4.980760
    12  H    2.120203   3.496728   3.973309   4.397664   5.459417
                    6          7          8          9         10
     6  C    0.000000
     7  H    1.080643   0.000000
     8  C    1.352016   2.185705   0.000000
     9  H    2.176113   2.653399   1.081759   0.000000
    10  C    2.519920   2.898749   3.582196   4.599447   0.000000
    11  H    3.496728   3.973311   4.397662   5.459416   1.084484
    12  H    2.804731   2.763105   4.075669   4.980766   1.084484
                   11         12
    11  H    0.000000
    12  H    1.850347   0.000000
 Stoichiometry    C6H6
 Framework group  CS[SG(C6H6)]
 Deg. of freedom    21
 Full point group                 CS      NOp   2
 Largest Abelian subgroup         CS      NOp   2
 Largest concise Abelian subgroup C1      NOp   1
                         Standard orientation:                         
 ---------------------------------------------------------------------
 Center     Atomic      Atomic             Coordinates (Angstroms)
 Number     Number       Type             X           Y           Z
 ---------------------------------------------------------------------
      1          6           0        0.000000    0.759956    0.000000
      2          6           0       -1.178320   -0.125629    0.000000
      3          1           0       -2.202957    0.217753    0.000000
      4          6           0       -0.737261   -1.403679    0.000000
      5          1           0       -1.350343   -2.294931    0.000000
      6          6           0        1.178321   -0.125625    0.000000
      7          1           0        2.202956    0.217760    0.000000
      8          6           0        0.737265   -1.403677    0.000000
      9          1           0        1.350354   -2.294927    0.000000
     10          6           0       -0.000005    2.101827    0.000000
     11          1           0       -0.925181    2.667650    0.000000
     12          1           0        0.925166    2.667658    0.000000
 ---------------------------------------------------------------------
 Rotational constants (GHZ):      8.2107901      3.8099625      2.6023997
 Leave Link  202 at Fri Dec  3 17:32:48 2021, MaxMem=  498073600 cpu:       0.0
 (Enter /apps/software//g09/l301.exe)
 Standard basis: 6-311++G(d,p) (5D, 7F)
 Ernie: Thresh=  0.10000D-02 Tol=  0.10000D-05 Strict=F.
 There are   132 symmetry adapted basis functions of A'  symmetry.
 There are    42 symmetry adapted basis functions of A"  symmetry.
 Integral buffers will be    131072 words long.
 Raffenetti 1 integral format.
 Two-electron integral symmetry is turned on.
   174 basis functions,   270 primitive gaussians,   180 cartesian basis functions
    21 alpha electrons       21 beta electrons
       nuclear repulsion energy       200.7362433841 Hartrees.
 IExCor=    0 DFT=F Ex=HF Corr=None ExCW=0 ScaHFX=  1.000000
 ScaDFX=  1.000000  1.000000  1.000000  1.000000 ScalE2=  1.000000  1.000000
 IRadAn=      0 IRanWt=     -1 IRanGd=            0 ICorTp=0
 NAtoms=   12 NActive=   12 NUniq=   12 SFac= 7.50D-01 NAtFMM=   80 NAOKFM=F Big=F
 Leave Link  301 at Fri Dec  3 17:32:48 2021, MaxMem=  498073600 cpu:       0.2
 (Enter /apps/software//g09/l302.exe)
 NPDir=0 NMtPBC=     1 NCelOv=     1 NCel=       1 NClECP=     1 NCelD=      1
         NCelK=      1 NCelE2=     1 NClLst=     1 CellRange=     0.0.
 One-electron integrals computed using PRISM.
 NBasis=   174 RedAO= T  NBF=   132    42
 NBsUse=   174 1.00D-06 NBFU=   132    42
 Leave Link  302 at Fri Dec  3 17:32:48 2021, MaxMem=  498073600 cpu:       0.6
 (Enter /apps/software//g09/l303.exe)
 DipDrv:  MaxL=1.
 Leave Link  303 at Fri Dec  3 17:32:48 2021, MaxMem=  498073600 cpu:       0.1
 (Enter /apps/software//g09/l401.exe)
 Harris functional with IExCor=  205 diagonalized for initial guess.
 ExpMin= 3.60D-02 ExpMax= 4.56D+03 ExpMxC= 6.82D+02 IAcc=3 IRadAn=         0 AccDes= 0.00D+00
 HarFok:  IExCor=  205 AccDes= 0.00D+00 IRadAn=         0 IDoV= 1
 ScaDFX=  1.000000  1.000000  1.000000  1.000000
 FoFCou: FMM=F IPFlag=           0 FMFlag=      100000 FMFlg1=           0
         NFxFlg=           0 DoJE=T BraDBF=F KetDBF=T FulRan=T
         Omega=  0.000000  0.000000  1.000000  0.000000  0.000000 ICntrl=     500 IOpCl=  0
         NMat0=    1 NMatS0=    1 NMatT0=    0 NMatD0=    1 NMtDS0=    0 NMtDT0=    0
         I1Cent=           4 NGrid=           0.
 Petite list used in FoFCou.
 Harris En= -231.095620916148    
 Initial guess orbital symmetries:
       Occupied  (A') (A') (A') (A') (A') (A') (A') (A') (A') (A')
                 (A') (A') (A') (A') (A') (A') (A') (A") (A') (A")
                 (A")
       Virtual   (A") (A") (A") (A') (A') (A') (A') (A') (A') (A')
                 (A") (A') (A') (A") (A") (A') (A') (A') (A') (A')
                 (A') (A') (A") (A') (A") (A') (A') (A') (A") (A')
                 (A') (A') (A') (A') (A') (A') (A') (A') (A') (A')
                 (A') (A') (A') (A') (A') (A') (A") (A') (A') (A')
                 (A") (A') (A") (A') (A") (A") (A") (A') (A') (A')
                 (A') (A') (A') (A') (A') (A') (A') (A') (A') (A')
                 (A") (A') (A") (A') (A') (A") (A') (A") (A") (A")
                 (A') (A') (A') (A') (A") (A') (A') (A') (A") (A')
                 (A') (A") (A') (A") (A') (A") (A") (A") (A') (A')
                 (A') (A') (A") (A') (A') (A") (A') (A') (A") (A')
                 (A") (A") (A') (A') (A') (A') (A') (A') (A") (A')
                 (A') (A') (A") (A") (A') (A') (A') (A') (A') (A")
                 (A") (A") (A') (A') (A') (A') (A') (A') (A') (A')
                 (A') (A') (A') (A') (A') (A') (A') (A') (A') (A')
                 (A') (A') (A')
 The electronic state of the initial guess is 1-A'.
 Leave Link  401 at Fri Dec  3 17:32:49 2021, MaxMem=  498073600 cpu:       1.7
 (Enter /apps/software//g09/l502.exe)
 Closed shell SCF:
 Requested convergence on RMS density matrix=1.00D-08 within 128 cycles.
 Requested convergence on MAX density matrix=1.00D-06.
 Requested convergence on             energy=1.00D-06.
 No special actions if energy rises.
 Using DIIS extrapolation, IDIIS=  1040.
 Integral symmetry usage will be decided dynamically.
 Keep R1 ints in memory in canonical form, NReq=135772825.
 IEnd=      117836 IEndB=      117836 NGot=   498073600 MDV=   365314762
 LenX=   365314762 LenY=   365281921
 Symmetry not used in FoFDir.
 MinBra= 0 MaxBra= 2 Meth= 1.
 IRaf=       0 NMat=   1 IRICut=       1 DoRegI=T DoRafI=F ISym2E= 0 JSym2E=0.

 Cycle   1  Pass 1  IDiag  1:
 E= -230.389849381740    
 DIIS: error= 7.49D-02 at cycle   1 NSaved=   1.
 NSaved= 1 IEnMin= 1 EnMin= -230.389849381740     IErMin= 1 ErrMin= 7.49D-02
 ErrMax= 7.49D-02 EMaxC= 1.00D-01 BMatC= 5.19D-01 BMatP= 5.19D-01
 IDIUse=3 WtCom= 2.51D-01 WtEn= 7.49D-01
 Coeff-Com:  0.100D+01
 Coeff-En:   0.100D+01
 Coeff:      0.100D+01
 Gap=     0.279 Goal=   None    Shift=    0.000
 GapD=    0.279 DampG=1.000 DampE=0.500 DampFc=0.5000 IDamp=-1.
 Damping current iteration by 5.00D-01
 RMSDP=2.52D-02 MaxDP=1.19D+00              OVMax= 1.72D-01

 Cycle   2  Pass 1  IDiag  1:
 E= -230.551928158419     Delta-E=       -0.162078776679 Rises=F Damp=T
 DIIS: error= 2.95D-02 at cycle   2 NSaved=   2.
 NSaved= 2 IEnMin= 2 EnMin= -230.551928158419     IErMin= 2 ErrMin= 2.95D-02
 ErrMax= 2.95D-02 EMaxC= 1.00D-01 BMatC= 1.11D-01 BMatP= 5.19D-01
 IDIUse=3 WtCom= 7.05D-01 WtEn= 2.95D-01
 Coeff-Com: -0.681D+00 0.168D+01
 Coeff-En:   0.000D+00 0.100D+01
 Coeff:     -0.481D+00 0.148D+01
 Gap=     0.363 Goal=   None    Shift=    0.000
 RMSDP=9.24D-03 MaxDP=4.74D-01 DE=-1.62D-01 OVMax= 6.12D-02

 Cycle   3  Pass 1  IDiag  1:
 E= -230.696860829583     Delta-E=       -0.144932671164 Rises=F Damp=F
 DIIS: error= 4.60D-03 at cycle   3 NSaved=   3.
 NSaved= 3 IEnMin= 3 EnMin= -230.696860829583     IErMin= 3 ErrMin= 4.60D-03
 ErrMax= 4.60D-03 EMaxC= 1.00D-01 BMatC= 2.33D-03 BMatP= 1.11D-01
 IDIUse=3 WtCom= 9.54D-01 WtEn= 4.60D-02
 Coeff-Com: -0.130D+00 0.234D+00 0.896D+00
 Coeff-En:   0.000D+00 0.000D+00 0.100D+01
 Coeff:     -0.124D+00 0.223D+00 0.901D+00
 Gap=     0.347 Goal=   None    Shift=    0.000
 RMSDP=3.51D-03 MaxDP=2.40D-01 DE=-1.45D-01 OVMax= 2.37D-02

 Cycle   4  Pass 1  IDiag  1:
 E= -230.699052597580     Delta-E=       -0.002191767997 Rises=F Damp=F
 DIIS: error= 2.11D-03 at cycle   4 NSaved=   4.
 NSaved= 4 IEnMin= 4 EnMin= -230.699052597580     IErMin= 4 ErrMin= 2.11D-03
 ErrMax= 2.11D-03 EMaxC= 1.00D-01 BMatC= 3.03D-04 BMatP= 2.33D-03
 IDIUse=3 WtCom= 9.79D-01 WtEn= 2.11D-02
 Coeff-Com: -0.178D-01 0.175D-01 0.274D+00 0.726D+00
 Coeff-En:   0.000D+00 0.000D+00 0.000D+00 0.100D+01
 Coeff:     -0.174D-01 0.171D-01 0.268D+00 0.732D+00
 Gap=     0.349 Goal=   None    Shift=    0.000
 RMSDP=4.02D-04 MaxDP=2.13D-02 DE=-2.19D-03 OVMax= 6.31D-03

 Cycle   5  Pass 1  IDiag  1:
 E= -230.699366278745     Delta-E=       -0.000313681165 Rises=F Damp=F
 DIIS: error= 5.44D-04 at cycle   5 NSaved=   5.
 NSaved= 5 IEnMin= 5 EnMin= -230.699366278745     IErMin= 5 ErrMin= 5.44D-04
 ErrMax= 5.44D-04 EMaxC= 1.00D-01 BMatC= 1.05D-05 BMatP= 3.03D-04
 IDIUse=3 WtCom= 9.95D-01 WtEn= 5.44D-03
 Coeff-Com:  0.979D-02-0.162D-01-0.920D-01-0.911D-01 0.119D+01
 Coeff-En:   0.000D+00 0.000D+00 0.000D+00 0.000D+00 0.100D+01
 Coeff:      0.974D-02-0.161D-01-0.915D-01-0.906D-01 0.119D+01
 Gap=     0.349 Goal=   None    Shift=    0.000
 RMSDP=1.67D-04 MaxDP=1.19D-02 DE=-3.14D-04 OVMax= 4.13D-03

 Cycle   6  Pass 1  IDiag  1:
 E= -230.699400574512     Delta-E=       -0.000034295766 Rises=F Damp=F
 DIIS: error= 1.90D-04 at cycle   6 NSaved=   6.
 NSaved= 6 IEnMin= 6 EnMin= -230.699400574512     IErMin= 6 ErrMin= 1.90D-04
 ErrMax= 1.90D-04 EMaxC= 1.00D-01 BMatC= 1.23D-06 BMatP= 1.05D-05
 IDIUse=3 WtCom= 9.98D-01 WtEn= 1.90D-03
 Coeff-Com:  0.104D-02-0.129D-02-0.103D-01-0.613D-01-0.566D-02 0.108D+01
 Coeff-En:   0.000D+00 0.000D+00 0.000D+00 0.000D+00 0.000D+00 0.100D+01
 Coeff:      0.104D-02-0.129D-02-0.103D-01-0.612D-01-0.565D-02 0.108D+01
 Gap=     0.350 Goal=   None    Shift=    0.000
 RMSDP=7.93D-05 MaxDP=3.85D-03 DE=-3.43D-05 OVMax= 1.17D-03

 Cycle   7  Pass 1  IDiag  1:
 E= -230.699404545566     Delta-E=       -0.000003971054 Rises=F Damp=F
 DIIS: error= 7.65D-05 at cycle   7 NSaved=   7.
 NSaved= 7 IEnMin= 7 EnMin= -230.699404545566     IErMin= 7 ErrMin= 7.65D-05
 ErrMax= 7.65D-05 EMaxC= 1.00D-01 BMatC= 2.23D-07 BMatP= 1.23D-06
 IDIUse=1 WtCom= 1.00D+00 WtEn= 0.00D+00
 Coeff-Com: -0.775D-03 0.133D-02 0.812D-02-0.678D-02-0.819D-01 0.462D-01
 Coeff-Com:  0.103D+01
 Coeff:     -0.775D-03 0.133D-02 0.812D-02-0.678D-02-0.819D-01 0.462D-01
 Coeff:      0.103D+01
 Gap=     0.350 Goal=   None    Shift=    0.000
 RMSDP=4.35D-05 MaxDP=2.43D-03 DE=-3.97D-06 OVMax= 7.01D-04

 Cycle   8  Pass 1  IDiag  1:
 E= -230.699405267555     Delta-E=       -0.000000721990 Rises=F Damp=F
 DIIS: error= 4.55D-05 at cycle   8 NSaved=   8.
 NSaved= 8 IEnMin= 8 EnMin= -230.699405267555     IErMin= 8 ErrMin= 4.55D-05
 ErrMax= 4.55D-05 EMaxC= 1.00D-01 BMatC= 6.27D-08 BMatP= 2.23D-07
 IDIUse=1 WtCom= 1.00D+00 WtEn= 0.00D+00
 Coeff-Com: -0.493D-03 0.707D-03 0.523D-02 0.108D-01-0.603D-02-0.319D+00
 Coeff-Com:  0.241D+00 0.107D+01
 Coeff:     -0.493D-03 0.707D-03 0.523D-02 0.108D-01-0.603D-02-0.319D+00
 Coeff:      0.241D+00 0.107D+01
 Gap=     0.350 Goal=   None    Shift=    0.000
 RMSDP=2.86D-05 MaxDP=1.71D-03 DE=-7.22D-07 OVMax= 3.67D-04

 Cycle   9  Pass 1  IDiag  1:
 E= -230.699405460657     Delta-E=       -0.000000193102 Rises=F Damp=F
 DIIS: error= 6.20D-06 at cycle   9 NSaved=   9.
 NSaved= 9 IEnMin= 9 EnMin= -230.699405460657     IErMin= 9 ErrMin= 6.20D-06
 ErrMax= 6.20D-06 EMaxC= 1.00D-01 BMatC= 3.00D-09 BMatP= 6.27D-08
 IDIUse=1 WtCom= 1.00D+00 WtEn= 0.00D+00
 Coeff-Com:  0.619D-04-0.109D-03-0.596D-03-0.932D-03 0.102D-01-0.981D-02
 Coeff-Com: -0.794D-01-0.567D-02 0.109D+01
 Coeff:      0.619D-04-0.109D-03-0.596D-03-0.932D-03 0.102D-01-0.981D-02
 Coeff:     -0.794D-01-0.567D-02 0.109D+01
 Gap=     0.350 Goal=   None    Shift=    0.000
 RMSDP=4.32D-06 MaxDP=2.27D-04 DE=-1.93D-07 OVMax= 7.85D-05

 Cycle  10  Pass 1  IDiag  1:
 E= -230.699405468685     Delta-E=       -0.000000008028 Rises=F Damp=F
 DIIS: error= 2.41D-06 at cycle  10 NSaved=  10.
 NSaved=10 IEnMin=10 EnMin= -230.699405468685     IErMin=10 ErrMin= 2.41D-06
 ErrMax= 2.41D-06 EMaxC= 1.00D-01 BMatC= 4.03D-10 BMatP= 3.00D-09
 IDIUse=1 WtCom= 1.00D+00 WtEn= 0.00D+00
 Coeff-Com:  0.759D-04-0.115D-03-0.723D-03-0.183D-02 0.348D-02 0.367D-01
 Coeff-Com: -0.391D-01-0.130D+00 0.185D+00 0.947D+00
 Coeff:      0.759D-04-0.115D-03-0.723D-03-0.183D-02 0.348D-02 0.367D-01
 Coeff:     -0.391D-01-0.130D+00 0.185D+00 0.947D+00
 Gap=     0.350 Goal=   None    Shift=    0.000
 RMSDP=7.65D-07 MaxDP=4.23D-05 DE=-8.03D-09 OVMax= 1.61D-05

 Cycle  11  Pass 1  IDiag  1:
 E= -230.699405469462     Delta-E=       -0.000000000777 Rises=F Damp=F
 DIIS: error= 8.92D-07 at cycle  11 NSaved=  11.
 NSaved=11 IEnMin=11 EnMin= -230.699405469462     IErMin=11 ErrMin= 8.92D-07
 ErrMax= 8.92D-07 EMaxC= 1.00D-01 BMatC= 3.21D-11 BMatP= 4.03D-10
 IDIUse=1 WtCom= 1.00D+00 WtEn= 0.00D+00
 Coeff-Com: -0.161D-04 0.248D-04 0.201D-03 0.342D-03-0.143D-02-0.665D-02
 Coeff-Com:  0.172D-01 0.239D-01-0.134D+00-0.289D+00 0.139D+01
 Coeff:     -0.161D-04 0.248D-04 0.201D-03 0.342D-03-0.143D-02-0.665D-02
 Coeff:      0.172D-01 0.239D-01-0.134D+00-0.289D+00 0.139D+01
 Gap=     0.350 Goal=   None    Shift=    0.000
 RMSDP=2.88D-07 MaxDP=8.98D-06 DE=-7.77D-10 OVMax= 7.31D-06

 Cycle  12  Pass 1  IDiag  1:
 E= -230.699405469582     Delta-E=       -0.000000000120 Rises=F Damp=F
 DIIS: error= 1.86D-07 at cycle  12 NSaved=  12.
 NSaved=12 IEnMin=12 EnMin= -230.699405469582     IErMin=12 ErrMin= 1.86D-07
 ErrMax= 1.86D-07 EMaxC= 1.00D-01 BMatC= 1.81D-12 BMatP= 3.21D-11
 IDIUse=1 WtCom= 1.00D+00 WtEn= 0.00D+00
 Coeff-Com:  0.849D-06-0.136D-05-0.209D-04-0.232D-04 0.300D-03-0.224D-03
 Coeff-Com: -0.255D-02-0.136D-02 0.383D-01 0.869D-02-0.408D+00 0.136D+01
 Coeff:      0.849D-06-0.136D-05-0.209D-04-0.232D-04 0.300D-03-0.224D-03
 Coeff:     -0.255D-02-0.136D-02 0.383D-01 0.869D-02-0.408D+00 0.136D+01
 Gap=     0.350 Goal=   None    Shift=    0.000
 RMSDP=1.46D-07 MaxDP=6.99D-06 DE=-1.20D-10 OVMax= 1.45D-06

 Cycle  13  Pass 1  IDiag  1:
 E= -230.699405469586     Delta-E=       -0.000000000004 Rises=F Damp=F
 DIIS: error= 3.21D-08 at cycle  13 NSaved=  13.
 NSaved=13 IEnMin=13 EnMin= -230.699405469586     IErMin=13 ErrMin= 3.21D-08
 ErrMax= 3.21D-08 EMaxC= 1.00D-01 BMatC= 5.50D-14 BMatP= 1.81D-12
 IDIUse=1 WtCom= 1.00D+00 WtEn= 0.00D+00
 Coeff-Com:  0.400D-06-0.644D-06-0.319D-05-0.897D-05-0.412D-05 0.290D-03
 Coeff-Com: -0.148D-04-0.120D-02-0.901D-03 0.708D-02 0.306D-01-0.283D+00
 Coeff-Com:  0.125D+01
 Coeff:      0.400D-06-0.644D-06-0.319D-05-0.897D-05-0.412D-05 0.290D-03
 Coeff:     -0.148D-04-0.120D-02-0.901D-03 0.708D-02 0.306D-01-0.283D+00
 Coeff:      0.125D+01
 Gap=     0.350 Goal=   None    Shift=    0.000
 RMSDP=3.07D-08 MaxDP=1.50D-06 DE=-4.43D-12 OVMax= 2.01D-07

 Cycle  14  Pass 1  IDiag  1:
 E= -230.699405469590     Delta-E=       -0.000000000003 Rises=F Damp=F
 DIIS: error= 6.21D-09 at cycle  14 NSaved=  14.
 NSaved=14 IEnMin=14 EnMin= -230.699405469590     IErMin=14 ErrMin= 6.21D-09
 ErrMax= 6.21D-09 EMaxC= 1.00D-01 BMatC= 2.87D-15 BMatP= 5.50D-14
 IDIUse=1 WtCom= 1.00D+00 WtEn= 0.00D+00
 Coeff-Com: -0.166D-06 0.271D-06 0.191D-05 0.417D-05-0.109D-04-0.889D-04
 Coeff-Com:  0.168D-03 0.302D-03-0.986D-03-0.316D-02 0.798D-02 0.281D-01
 Coeff-Com: -0.370D+00 0.134D+01
 Coeff:     -0.166D-06 0.271D-06 0.191D-05 0.417D-05-0.109D-04-0.889D-04
 Coeff:      0.168D-03 0.302D-03-0.986D-03-0.316D-02 0.798D-02 0.281D-01
 Coeff:     -0.370D+00 0.134D+01
 Gap=     0.350 Goal=   None    Shift=    0.000
 RMSDP=3.78D-09 MaxDP=1.75D-07 DE=-3.30D-12 OVMax= 4.20D-08

 SCF Done:  E(RHF) =  -230.699405470     A.U. after   14 cycles
             Convg  =    0.3778D-08             -V/T =  2.0013
 KE= 2.304075391037D+02 PE=-9.382289965355D+02 EE= 2.763858085781D+02
 Leave Link  502 at Fri Dec  3 17:32:55 2021, MaxMem=  498073600 cpu:      24.2
 (Enter /apps/software//g09/l801.exe)
 ExpMin= 3.60D-02 ExpMax= 4.56D+03 ExpMxC= 6.82D+02 IAcc=3 IRadAn=         5 AccDes= 0.00D+00
 HarFok:  IExCor=  205 AccDes= 0.00D+00 IRadAn=         5 IDoV=-2
 ScaDFX=  1.000000  1.000000  1.000000  1.000000
 Largest valence mixing into a core orbital is  1.40D-04
 Largest core mixing into a valence orbital is  4.35D-05
 Range of M.O.s used for correlation:     7   174
 NBasis=   174 NAE=    21 NBE=    21 NFC=     6 NFV=     0
 NROrb=    168 NOA=    15 NOB=    15 NVA=   153 NVB=   153

 **** Warning!!: The largest alpha MO coefficient is  0.16952235D+03

 Leave Link  801 at Fri Dec  3 17:32:55 2021, MaxMem=  498073600 cpu:       0.9
 (Enter /apps/software//g09/l906.exe)
 Frozen-core derivative calculation, NFC=   6 NFV=   0.
 FulOut=F Deriv=T AODrv=F NAtomX=    12
   MMem=         168  MDisk=          15 MDiskD=          15
  W3Min=      657720 MinDsk=     1009670 NBas6D=         180
 NBas2D=       16542    NTT=       16290    LW2=     2040000
    MDV=   497678639 MDiskM=       38246 NBas2p=       16319
 Fully in-core method, ICMem=   280919484.
 IMap=   1   2   3   4   5   6   7   8   9  10  11  12  13  14  15  16  17  18  19  20
 IMap=  21
 JobTyp=1 Pass  1 fully in-core, NPsUse=  4.
 Compute canonical integrals, IntTyp=   4.
 Symmetry not used in FoFDir.
 MinBra= 0 MaxBra= 2 Meth= 1.
 IRaf=       0 NMat=   1 IRICut=       1 DoRegI=T DoRafI=F ISym2E= 0 JSym2E=0.
 Spin components of T(2) and E(2):
     alpha-alpha T2 =       0.3969078438D-01 E2=     -0.1047289050D+00
     alpha-beta  T2 =       0.2281909918D+00 E2=     -0.6178892398D+00
     beta-beta   T2 =       0.3969078438D-01 E2=     -0.1047289050D+00
 The integrals were generated   1 times.
 ANorm=    0.1143491391D+01
 E2 =    -0.8273470498D+00 EUMP2 =    -0.23152675251938D+03
 Leave Link  906 at Fri Dec  3 17:33:20 2021, MaxMem=  498073600 cpu:      98.8
 (Enter /apps/software//g09/l1002.exe)
 Minotr:  Closed shell wavefunction.
          Computing MP2/KS-MP2 derivatives.
          Using Z-Vector for PSCF gradient.
          Skipping F1 and S1 gradient terms here.
          Frozen-core window.
          Direct CPHF calculation.
          Differentiating once with respect to electric field.
                with respect to dipole field.
          Electric field/nuclear overlap derivatives assumed to be zero.
          Using symmetry in CPHF.
          Requested convergence is 1.0D-10 RMS, and 1.0D-09 maximum.
          NewPWx=F KeepS1=T KeepF1=T KeepIn=T MapXYZ=F SortEE=F KeepMc=T.
          MDV=     498073500 using IRadAn=       0.
          Keep R1 ints in memory in canonical form, NReq=133511598.
 Symmetry not used in FoFDir.
 MinBra= 0 MaxBra= 2 Meth= 1.
 IRaf=       0 NMat=   1 IRICut=       1 DoRegI=T DoRafI=F ISym2E= 0 JSym2E=0.
          Solving linear equations separately, MaxMat=       0.
          There are     1 degrees of freedom in the 1st order CPHF.  IDoFFX=0.
 LinEq1:  Iter=  0 NonCon=     1 RMS=3.84D-03 Max=7.82D-02
 AX will form     1 AO Fock derivatives at one time.
 LinEq1:  Iter=  1 NonCon=     1 RMS=9.03D-04 Max=1.13D-02
 LinEq1:  Iter=  2 NonCon=     1 RMS=3.31D-04 Max=1.06D-02
 LinEq1:  Iter=  3 NonCon=     1 RMS=1.05D-04 Max=1.94D-03
 LinEq1:  Iter=  4 NonCon=     1 RMS=4.80D-05 Max=1.47D-03
 LinEq1:  Iter=  5 NonCon=     1 RMS=1.01D-05 Max=1.87D-04
 LinEq1:  Iter=  6 NonCon=     1 RMS=2.38D-06 Max=4.10D-05
 LinEq1:  Iter=  7 NonCon=     1 RMS=1.02D-06 Max=2.04D-05
 LinEq1:  Iter=  8 NonCon=     1 RMS=3.56D-07 Max=9.16D-06
 LinEq1:  Iter=  9 NonCon=     1 RMS=1.14D-07 Max=1.53D-06
 LinEq1:  Iter= 10 NonCon=     1 RMS=3.09D-08 Max=3.68D-07
 LinEq1:  Iter= 11 NonCon=     1 RMS=5.27D-09 Max=7.06D-08
 LinEq1:  Iter= 12 NonCon=     1 RMS=8.96D-10 Max=1.88D-08
 LinEq1:  Iter= 13 NonCon=     1 RMS=1.32D-10 Max=1.89D-09
 LinEq1:  Iter= 14 NonCon=     0 RMS=2.33D-11 Max=2.32D-10
 Linear equations converged to 1.000D-10 1.000D-09 after    14 iterations.
 End of Minotr Frequency-dependent properties file   721 does not exist.
 End of Minotr Frequency-dependent properties file   722 does not exist.
 Leave Link 1002 at Fri Dec  3 17:33:27 2021, MaxMem=  498073600 cpu:      29.9
 (Enter /apps/software//g09/l601.exe)
 Copying SCF densities to generalized density rwf, IOpCl= 0 IROHF=0.

 **********************************************************************

            Population analysis using the MP2 density.

 **********************************************************************

 Orbital symmetries:
       Occupied  (A') (A') (A') (A') (A') (A') (A') (A') (A') (A')
                 (A') (A') (A') (A') (A') (A') (A') (A") (A') (A")
                 (A")
       Virtual   (A') (A') (A') (A") (A') (A') (A') (A") (A') (A')
                 (A") (A") (A") (A') (A') (A') (A') (A') (A") (A')
                 (A') (A') (A") (A') (A') (A') (A') (A") (A') (A')
                 (A") (A') (A') (A') (A') (A') (A') (A') (A') (A')
                 (A') (A') (A') (A') (A') (A') (A') (A') (A") (A')
                 (A') (A") (A") (A') (A") (A") (A") (A') (A') (A')
                 (A') (A') (A') (A') (A') (A') (A') (A') (A') (A')
                 (A') (A') (A") (A') (A") (A') (A') (A") (A") (A")
                 (A") (A') (A') (A') (A") (A') (A') (A") (A') (A')
                 (A') (A") (A') (A") (A') (A") (A") (A") (A') (A')
                 (A') (A') (A') (A") (A") (A') (A') (A') (A") (A')
                 (A") (A") (A') (A') (A') (A') (A') (A') (A') (A')
                 (A') (A') (A') (A') (A") (A') (A') (A") (A") (A")
                 (A") (A") (A') (A') (A') (A') (A') (A') (A') (A')
                 (A') (A') (A') (A') (A') (A') (A') (A') (A') (A')
                 (A') (A') (A')
 The electronic state is 1-A'.
 Alpha  occ. eigenvalues --  -11.25227 -11.24710 -11.23571 -11.23494 -11.22944
 Alpha  occ. eigenvalues --  -11.22941  -1.16470  -1.02875  -0.97147  -0.86208
 Alpha  occ. eigenvalues --   -0.74505  -0.72795  -0.68930  -0.60942  -0.56706
 Alpha  occ. eigenvalues --   -0.55807  -0.52231  -0.50252  -0.49185  -0.34536
 Alpha  occ. eigenvalues --   -0.31018
 Alpha virt. eigenvalues --    0.03971   0.04925   0.05010   0.05464   0.06526
 Alpha virt. eigenvalues --    0.07081   0.08992   0.10980   0.13168   0.14009
 Alpha virt. eigenvalues --    0.14441   0.15261   0.16131   0.17034   0.17369
 Alpha virt. eigenvalues --    0.18296   0.18550   0.19387   0.19624   0.20243
 Alpha virt. eigenvalues --    0.20996   0.21816   0.22008   0.22139   0.23407
 Alpha virt. eigenvalues --    0.25235   0.26458   0.27906   0.28946   0.29618
 Alpha virt. eigenvalues --    0.29665   0.31401   0.33020   0.33152   0.36821
 Alpha virt. eigenvalues --    0.37188   0.41857   0.42485   0.43593   0.45768
 Alpha virt. eigenvalues --    0.47018   0.53483   0.56352   0.57007   0.61385
 Alpha virt. eigenvalues --    0.64719   0.68854   0.71221   0.72471   0.73373
 Alpha virt. eigenvalues --    0.73814   0.75270   0.75557   0.79186   0.82058
 Alpha virt. eigenvalues --    0.84065   0.86013   0.88982   0.91576   0.94266
 Alpha virt. eigenvalues --    0.95613   0.97844   1.00288   1.01295   1.01309
 Alpha virt. eigenvalues --    1.02366   1.02928   1.07658   1.08797   1.10977
 Alpha virt. eigenvalues --    1.14423   1.15746   1.18321   1.20258   1.23856
 Alpha virt. eigenvalues --    1.25795   1.32615   1.32734   1.35515   1.37296
 Alpha virt. eigenvalues --    1.37481   1.54907   1.66452   1.71096   1.77259
 Alpha virt. eigenvalues --    1.79939   1.80800   1.81523   1.83426   1.85875
 Alpha virt. eigenvalues --    1.90074   1.92039   1.96101   1.99213   2.00665
 Alpha virt. eigenvalues --    2.01587   2.11039   2.11488   2.14283   2.16461
 Alpha virt. eigenvalues --    2.18176   2.22355   2.24655   2.25973   2.27490
 Alpha virt. eigenvalues --    2.28141   2.42481   2.46514   2.54480   2.57283
 Alpha virt. eigenvalues --    2.58404   2.61023   2.63937   2.66565   2.78719
 Alpha virt. eigenvalues --    2.84088   2.87751   2.90749   2.97111   2.97638
 Alpha virt. eigenvalues --    2.99949   3.03245   3.04019   3.06821   3.07392
 Alpha virt. eigenvalues --    3.08207   3.08403   3.14576   3.19090   3.29203
 Alpha virt. eigenvalues --    3.39290   3.40034   3.43580   3.52757   3.53937
 Alpha virt. eigenvalues --    3.63254   3.78865   3.80000   3.90678   3.95133
 Alpha virt. eigenvalues --    4.07191   4.16351   4.47549   4.47645   4.48605
 Alpha virt. eigenvalues --    4.77534   5.07605  24.78752  24.96898  24.99343
 Alpha virt. eigenvalues --   25.37675  25.37894  25.39164
          Condensed to atoms (all electrons):
              1          2          3          4          5          6
     1  C   12.544470  -3.521548  -0.177612   1.265897   0.044665  -3.521556
     2  C   -3.521548  13.102135   0.667247  -3.549074  -0.192895   1.499322
     3  H   -0.177612   0.667247   0.567358  -0.228559  -0.018523   0.117511
     4  C    1.265897  -3.549074  -0.228559   9.121724   0.567031   1.248610
     5  H    0.044665  -0.192895  -0.018523   0.567031   0.561398   0.079524
     6  C   -3.521556   1.499322   0.117511   1.248610   0.079524  13.102189
     7  H   -0.177613   0.117511   0.002344   0.049322   0.002335   0.667250
     8  C    1.265898   1.248601   0.049321  -2.564488  -0.200184  -3.549070
     9  H    0.044665   0.079525   0.002335  -0.200185  -0.014034  -0.192895
    10  C   -2.778758  -2.773604  -0.151865   0.414467  -0.012644  -2.773653
    11  H    0.015462  -0.048303   0.004926   0.012850  -0.000063   0.051021
    12  H    0.015462   0.051022  -0.001099  -0.009057   0.000465  -0.048304
              7          8          9         10         11         12
     1  C   -0.177613   1.265898   0.044665  -2.778758   0.015462   0.015462
     2  C    0.117511   1.248601   0.079525  -2.773604  -0.048303   0.051022
     3  H    0.002344   0.049321   0.002335  -0.151865   0.004926  -0.001099
     4  C    0.049322  -2.564488  -0.200185   0.414467   0.012850  -0.009057
     5  H    0.002335  -0.200184  -0.014034  -0.012644  -0.000063   0.000465
     6  C    0.667250  -3.549070  -0.192895  -2.773653   0.051021  -0.048304
     7  H    0.567359  -0.228559  -0.018523  -0.151866  -0.001099   0.004926
     8  C   -0.228559   9.121703   0.567031   0.414481  -0.009056   0.012850
     9  H   -0.018523   0.567031   0.561398  -0.012644   0.000465  -0.000063
    10  C   -0.151866   0.414481  -0.012644  13.581310   0.309610   0.309610
    11  H   -0.001099  -0.009056   0.000465   0.309610   0.531619  -0.023305
    12  H    0.004926   0.012850  -0.000063   0.309610  -0.023305   0.531619
 Mulliken atomic charges:
              1
     1  C    0.980568
     2  C   -0.679938
     3  H    0.166615
     4  C   -0.128538
     5  H    0.182925
     6  C   -0.679949
     7  H    0.166615
     8  C   -0.128526
     9  H    0.182926
    10  C   -0.374445
    11  H    0.155874
    12  H    0.155873
 Sum of Mulliken atomic charges =   0.00000
 Mulliken charges with hydrogens summed into heavy atoms:
              1
     1  C    0.980568
     2  C   -0.513323
     4  C    0.054387
     6  C   -0.513334
     8  C    0.054400
    10  C   -0.062698
 Sum of Mulliken charges with hydrogens summed into heavy atoms =   0.00000
 Electronic spatial extent (au):  <R**2>=            496.0485
 Charge=              0.0000 electrons
 Dipole moment (field-independent basis, Debye):
    X=              0.0000    Y=              0.6443    Z=              0.0000  Tot=              0.6443
 Quadrupole moment (field-independent basis, Debye-Ang):
   XX=            -33.5900   YY=            -31.0194   ZZ=            -41.0302
   XY=              0.0000   XZ=              0.0000   YZ=              0.0000
 Traceless Quadrupole moment (field-independent basis, Debye-Ang):
   XX=              1.6232   YY=              4.1938   ZZ=             -5.8170
   XY=              0.0000   XZ=              0.0000   YZ=              0.0000
 Octapole moment (field-independent basis, Debye-Ang**2):
  XXX=              0.0000  YYY=              1.7892  ZZZ=              0.0000  XYY=              0.0000
  XXY=              2.0643  XXZ=              0.0000  XZZ=              0.0000  YZZ=              0.4386
  YYZ=              0.0000  XYZ=              0.0000
 Hexadecapole moment (field-independent basis, Debye-Ang**3):
 XXXX=           -213.2872 YYYY=           -393.0529 ZZZZ=            -52.1396 XXXY=              0.0002
 XXXZ=              0.0000 YYYX=              0.0003 YYYZ=              0.0000 ZZZX=              0.0000
 ZZZY=              0.0000 XXYY=            -98.4692 XXZZ=            -53.6935 YYZZ=            -89.7758
 XXYZ=              0.0000 YYXZ=              0.0000 ZZXY=              0.0001
 N-N= 2.007362433841D+02 E-N=-9.390785258501D+02  KE= 2.314315375300D+02
 Symmetry A'   KE= 2.249709393366D+02
 Symmetry A"   KE= 6.460598193386D+00
 No NMR shielding tensors so no spin-rotation constants.
 Leave Link  601 at Fri Dec  3 17:33:28 2021, MaxMem=  498073600 cpu:       1.1
 (Enter /apps/software//g09/l9999.exe)
 1\1\GINC-DLT01\SP\RMP2-FC\6-311++G(d,p)\C6H6\ITAMAR\03-Dec-2021\0\\#P 
 MP2/6-311++G** DENSITY=MP2\\Penta-CH2\\0,1\C,0,0.,0.759956,0.\C,0,-1.1
 7832,-0.125629,0.\H,0,-2.202957,0.217754,0.\C,0,-0.737261,-1.403679,0.
 \H,0,-1.350344,-2.294931,0.\C,0,1.178321,-0.125625,0.\H,0,2.202956,0.2
 1776,0.\C,0,0.737265,-1.403677,0.\H,0,1.350353,-2.294927,0.\C,0,-0.000
 005,2.101827,0.\H,0,-0.925181,2.66765,0.\H,0,0.925166,2.667658,0.\\Ver
 sion=EM64L-G09RevA.02\State=1-A'\HF=-230.6994055\MP2=-231.5267525\RMSD
 =3.778e-09\Dipole=-0.0000005,0.2534707,0.\Quadrupole=1.2067861,3.11798
 84,-4.3247745,-0.0000066,0.,0.\PG=CS [SG(C6H6)]\\@


 I FIND THAT THE THREE TRULY GREAT TIMES FOR THINKING THOUGHTS
 ARE WHEN I AM STANDING IN THE SHOWER, SITTING ON THE JOHN, OR WALKING.

                                    -- COLIN FLETCHER
 Job cpu time:  0 days  0 hours  2 minutes 38.2 seconds.
 File lengths (MBytes):  RWF=     14 Int=      0 D2E=      0 Chk=      4 Scr=      1
 Normal termination of Gaussian 09 at Fri Dec  3 17:33:28 2021.
