Clamp-10                                                                
SP        RMP2-FC                                                     6-311++G(d,p)       
Number of atoms                            I               12
Info1-9                                    I   N=           9
          19          19           0           0           0         110
           1           2           1
Full Title                                 C   N=           1
Clamp-10    
Route                                      C   N=           3
#P MP2/6-311++G** nosymm Density=MP2
Charge                                     I                0
Multiplicity                               I                1
Number of electrons                        I               42
Number of alpha electrons                  I               21
Number of beta electrons                   I               21
Number of basis functions                  I              174
Number of independent functions            I              174
Number of point charges in /Mol/           I                0
Number of translation vectors              I                0
Atomic numbers                             I   N=          12
           6           6           6           6           6           6
           1           1           1           1           1           1
Nuclear charges                            R   N=          12
  6.00000000E+00  6.00000000E+00  6.00000000E+00  6.00000000E+00  6.00000000E+00
  6.00000000E+00  1.00000000E+00  1.00000000E+00  1.00000000E+00  1.00000000E+00
  1.00000000E+00  1.00000000E+00
Current cartesian coordinates              R   N=          36
  2.64094727E+00  1.81843810E-02  0.00000000E+00  1.33618575E+00  2.27795685E+00
  0.00000000E+00 -1.33618575E+00  2.27795685E+00  0.00000000E+00 -2.64094727E+00
  1.81843810E-02  0.00000000E+00 -1.30469536E+00 -2.29612747E+00  0.00000000E+00
  1.30469536E+00 -2.29612747E+00  0.00000000E+00  4.65899540E+00 -3.37705869E-01
  0.00000000E+00  2.03704366E+00  4.20353878E+00  0.00000000E+00 -2.03704366E+00
  4.20353878E+00  0.00000000E+00 -4.65899540E+00 -3.37705869E-01  0.00000000E+00
 -2.62182889E+00 -3.86591553E+00  0.00000000E+00  2.62182889E+00 -3.86591553E+00
  0.00000000E+00
Number of symbols in /Mol/                 I                0
Force Field                                I                0
Atom Types                                 C   N=          12
                                                            
                                                            
                        
Int Atom Types                             I   N=          12
           0           0           0           0           0           0
           0           0           0           0           0           0
MM charges                                 R   N=          12
  0.00000000E+00  0.00000000E+00  0.00000000E+00  0.00000000E+00  0.00000000E+00
  0.00000000E+00  0.00000000E+00  0.00000000E+00  0.00000000E+00  0.00000000E+00
  0.00000000E+00  0.00000000E+00
Integer atomic weights                     I   N=          12
          12          12          12          12          12          12
           1           1           1           1           1           1
Real atomic weights                        R   N=          12
  1.20000000E+01  1.20000000E+01  1.20000000E+01  1.20000000E+01  1.20000000E+01
  1.20000000E+01  1.00782504E+00  1.00782504E+00  1.00782504E+00  1.00782504E+00
  1.00782504E+00  1.00782504E+00
Atom fragment info                         I   N=          12
           0           0           0           0           0           0
           0           0           0           0           0           0
Atom residue num                           I   N=          12
           0           0           0           0           0           0
           0           0           0           0           0           0
Nuclear spins                              I   N=          12
           0           0           0           0           0           0
           1           1           1           1           1           1
Nuclear ZEff                               R   N=          12
 -3.60000000E+00 -3.60000000E+00 -3.60000000E+00 -3.60000000E+00 -3.60000000E+00
 -3.60000000E+00 -1.00000000E+00 -1.00000000E+00 -1.00000000E+00 -1.00000000E+00
 -1.00000000E+00 -1.00000000E+00
Nuclear ZNuc                               R   N=          12
  6.00000000E+00  6.00000000E+00  6.00000000E+00  6.00000000E+00  6.00000000E+00
  6.00000000E+00  1.00000000E+00  1.00000000E+00  1.00000000E+00  1.00000000E+00
  1.00000000E+00  1.00000000E+00
Nuclear QMom                               R   N=          12
  0.00000000E+00  0.00000000E+00  0.00000000E+00  0.00000000E+00  0.00000000E+00
  0.00000000E+00  0.00000000E+00  0.00000000E+00  0.00000000E+00  0.00000000E+00
  0.00000000E+00  0.00000000E+00
Nuclear GFac                               R   N=          12
  0.00000000E+00  0.00000000E+00  0.00000000E+00  0.00000000E+00  0.00000000E+00
  0.00000000E+00  2.79284600E+00  2.79284600E+00  2.79284600E+00  2.79284600E+00
  2.79284600E+00  2.79284600E+00
MicOpt                                     I   N=          12
          -1          -1          -1          -1          -1          -1
          -1          -1          -1          -1          -1          -1
Number of residues                         I                0
Number of secondary structures             I                0
Number of contracted shells                I               66
Number of primitive shells                 I              120
Pure/Cartesian d shells                    I                0
Pure/Cartesian f shells                    I                0
Highest angular momentum                   I                2
Largest degree of contraction              I                6
Shell types                                I   N=          66
           0          -1          -1          -1          -1          -2
           0          -1          -1          -1          -1          -2
           0          -1          -1          -1          -1          -2
           0          -1          -1          -1          -1          -2
           0          -1          -1          -1          -1          -2
           0          -1          -1          -1          -1          -2
           0           0           0           0           1           0
           0           0           0           1           0           0
           0           0           1           0           0           0
           0           1           0           0           0           0
           1           0           0           0           0           1
Number of primitives per shell             I   N=          66
           6           3           1           1           1           1
           6           3           1           1           1           1
           6           3           1           1           1           1
           6           3           1           1           1           1
           6           3           1           1           1           1
           6           3           1           1           1           1
           3           1           1           1           1           3
           1           1           1           1           3           1
           1           1           1           3           1           1
           1           1           3           1           1           1
           1           3           1           1           1           1
Shell to atom map                          I   N=          66
           1           1           1           1           1           1
           2           2           2           2           2           2
           3           3           3           3           3           3
           4           4           4           4           4           4
           5           5           5           5           5           5
           6           6           6           6           6           6
           7           7           7           7           7           8
           8           8           8           8           9           9
           9           9           9          10          10          10
          10          10          11          11          11          11
          11          12          12          12          12          12
Primitive exponents                        R   N=         120
  4.56324000E+03  6.82024000E+02  1.54973000E+02  4.44553000E+01  1.30290000E+01
  1.82773000E+00  2.09642000E+01  4.80331000E+00  1.45933000E+00  4.83456000E-01
  1.45585000E-01  4.38000000E-02  6.26000000E-01  4.56324000E+03  6.82024000E+02
  1.54973000E+02  4.44553000E+01  1.30290000E+01  1.82773000E+00  2.09642000E+01
  4.80331000E+00  1.45933000E+00  4.83456000E-01  1.45585000E-01  4.38000000E-02
  6.26000000E-01  4.56324000E+03  6.82024000E+02  1.54973000E+02  4.44553000E+01
  1.30290000E+01  1.82773000E+00  2.09642000E+01  4.80331000E+00  1.45933000E+00
  4.83456000E-01  1.45585000E-01  4.38000000E-02  6.26000000E-01  4.56324000E+03
  6.82024000E+02  1.54973000E+02  4.44553000E+01  1.30290000E+01  1.82773000E+00
  2.09642000E+01  4.80331000E+00  1.45933000E+00  4.83456000E-01  1.45585000E-01
  4.38000000E-02  6.26000000E-01  4.56324000E+03  6.82024000E+02  1.54973000E+02
  4.44553000E+01  1.30290000E+01  1.82773000E+00  2.09642000E+01  4.80331000E+00
  1.45933000E+00  4.83456000E-01  1.45585000E-01  4.38000000E-02  6.26000000E-01
  4.56324000E+03  6.82024000E+02  1.54973000E+02  4.44553000E+01  1.30290000E+01
  1.82773000E+00  2.09642000E+01  4.80331000E+00  1.45933000E+00  4.83456000E-01
  1.45585000E-01  4.38000000E-02  6.26000000E-01  3.38650000E+01  5.09479000E+00
  1.15879000E+00  3.25840000E-01  1.02741000E-01  3.60000000E-02  7.50000000E-01
  3.38650000E+01  5.09479000E+00  1.15879000E+00  3.25840000E-01  1.02741000E-01
  3.60000000E-02  7.50000000E-01  3.38650000E+01  5.09479000E+00  1.15879000E+00
  3.25840000E-01  1.02741000E-01  3.60000000E-02  7.50000000E-01  3.38650000E+01
  5.09479000E+00  1.15879000E+00  3.25840000E-01  1.02741000E-01  3.60000000E-02
  7.50000000E-01  3.38650000E+01  5.09479000E+00  1.15879000E+00  3.25840000E-01
  1.02741000E-01  3.60000000E-02  7.50000000E-01  3.38650000E+01  5.09479000E+00
  1.15879000E+00  3.25840000E-01  1.02741000E-01  3.60000000E-02  7.50000000E-01
Contraction coefficients                   R   N=         120
  1.96665025E-03  1.52306019E-02  7.61269097E-02  2.60801033E-01  6.16462078E-01
  2.21006028E-01  1.14660081E-01  9.19999648E-01 -3.03068213E-03  1.00000000E+00
  1.00000000E+00  1.00000000E+00  1.00000000E+00  1.96665025E-03  1.52306019E-02
  7.61269097E-02  2.60801033E-01  6.16462078E-01  2.21006028E-01  1.14660081E-01
  9.19999648E-01 -3.03068213E-03  1.00000000E+00  1.00000000E+00  1.00000000E+00
  1.00000000E+00  1.96665025E-03  1.52306019E-02  7.61269097E-02  2.60801033E-01
  6.16462078E-01  2.21006028E-01  1.14660081E-01  9.19999648E-01 -3.03068213E-03
  1.00000000E+00  1.00000000E+00  1.00000000E+00  1.00000000E+00  1.96665025E-03
  1.52306019E-02  7.61269097E-02  2.60801033E-01  6.16462078E-01  2.21006028E-01
  1.14660081E-01  9.19999648E-01 -3.03068213E-03  1.00000000E+00  1.00000000E+00
  1.00000000E+00  1.00000000E+00  1.96665025E-03  1.52306019E-02  7.61269097E-02
  2.60801033E-01  6.16462078E-01  2.21006028E-01  1.14660081E-01  9.19999648E-01
 -3.03068213E-03  1.00000000E+00  1.00000000E+00  1.00000000E+00  1.00000000E+00
  1.96665025E-03  1.52306019E-02  7.61269097E-02  2.60801033E-01  6.16462078E-01
  2.21006028E-01  1.14660081E-01  9.19999648E-01 -3.03068213E-03  1.00000000E+00
  1.00000000E+00  1.00000000E+00  1.00000000E+00  2.54938145E-02  1.90373109E-01
  8.52161486E-01  1.00000000E+00  1.00000000E+00  1.00000000E+00  1.00000000E+00
  2.54938145E-02  1.90373109E-01  8.52161486E-01  1.00000000E+00  1.00000000E+00
  1.00000000E+00  1.00000000E+00  2.54938145E-02  1.90373109E-01  8.52161486E-01
  1.00000000E+00  1.00000000E+00  1.00000000E+00  1.00000000E+00  2.54938145E-02
  1.90373109E-01  8.52161486E-01  1.00000000E+00  1.00000000E+00  1.00000000E+00
  1.00000000E+00  2.54938145E-02  1.90373109E-01  8.52161486E-01  1.00000000E+00
  1.00000000E+00  1.00000000E+00  1.00000000E+00  2.54938145E-02  1.90373109E-01
  8.52161486E-01  1.00000000E+00  1.00000000E+00  1.00000000E+00  1.00000000E+00
P(S=P) Contraction coefficients            R   N=         120
  0.00000000E+00  0.00000000E+00  0.00000000E+00  0.00000000E+00  0.00000000E+00
  0.00000000E+00  4.02486927E-02  2.37593957E-01  8.15853851E-01  1.00000000E+00
  1.00000000E+00  1.00000000E+00  0.00000000E+00  0.00000000E+00  0.00000000E+00
  0.00000000E+00  0.00000000E+00  0.00000000E+00  0.00000000E+00  4.02486927E-02
  2.37593957E-01  8.15853851E-01  1.00000000E+00  1.00000000E+00  1.00000000E+00
  0.00000000E+00  0.00000000E+00  0.00000000E+00  0.00000000E+00  0.00000000E+00
  0.00000000E+00  0.00000000E+00  4.02486927E-02  2.37593957E-01  8.15853851E-01
  1.00000000E+00  1.00000000E+00  1.00000000E+00  0.00000000E+00  0.00000000E+00
  0.00000000E+00  0.00000000E+00  0.00000000E+00  0.00000000E+00  0.00000000E+00
  4.02486927E-02  2.37593957E-01  8.15853851E-01  1.00000000E+00  1.00000000E+00
  1.00000000E+00  0.00000000E+00  0.00000000E+00  0.00000000E+00  0.00000000E+00
  0.00000000E+00  0.00000000E+00  0.00000000E+00  4.02486927E-02  2.37593957E-01
  8.15853851E-01  1.00000000E+00  1.00000000E+00  1.00000000E+00  0.00000000E+00
  0.00000000E+00  0.00000000E+00  0.00000000E+00  0.00000000E+00  0.00000000E+00
  0.00000000E+00  4.02486927E-02  2.37593957E-01  8.15853851E-01  1.00000000E+00
  1.00000000E+00  1.00000000E+00  0.00000000E+00  0.00000000E+00  0.00000000E+00
  0.00000000E+00  0.00000000E+00  0.00000000E+00  0.00000000E+00  0.00000000E+00
  0.00000000E+00  0.00000000E+00  0.00000000E+00  0.00000000E+00  0.00000000E+00
  0.00000000E+00  0.00000000E+00  0.00000000E+00  0.00000000E+00  0.00000000E+00
  0.00000000E+00  0.00000000E+00  0.00000000E+00  0.00000000E+00  0.00000000E+00
  0.00000000E+00  0.00000000E+00  0.00000000E+00  0.00000000E+00  0.00000000E+00
  0.00000000E+00  0.00000000E+00  0.00000000E+00  0.00000000E+00  0.00000000E+00
  0.00000000E+00  0.00000000E+00  0.00000000E+00  0.00000000E+00  0.00000000E+00
  0.00000000E+00  0.00000000E+00  0.00000000E+00  0.00000000E+00  0.00000000E+00
Coordinates of each shell                  R   N=         198
  2.64094727E+00  1.81843810E-02  0.00000000E+00  2.64094727E+00  1.81843810E-02
  0.00000000E+00  2.64094727E+00  1.81843810E-02  0.00000000E+00  2.64094727E+00
  1.81843810E-02  0.00000000E+00  2.64094727E+00  1.81843810E-02  0.00000000E+00
  2.64094727E+00  1.81843810E-02  0.00000000E+00  1.33618575E+00  2.27795685E+00
  0.00000000E+00  1.33618575E+00  2.27795685E+00  0.00000000E+00  1.33618575E+00
  2.27795685E+00  0.00000000E+00  1.33618575E+00  2.27795685E+00  0.00000000E+00
  1.33618575E+00  2.27795685E+00  0.00000000E+00  1.33618575E+00  2.27795685E+00
  0.00000000E+00 -1.33618575E+00  2.27795685E+00  0.00000000E+00 -1.33618575E+00
  2.27795685E+00  0.00000000E+00 -1.33618575E+00  2.27795685E+00  0.00000000E+00
 -1.33618575E+00  2.27795685E+00  0.00000000E+00 -1.33618575E+00  2.27795685E+00
  0.00000000E+00 -1.33618575E+00  2.27795685E+00  0.00000000E+00 -2.64094727E+00
  1.81843810E-02  0.00000000E+00 -2.64094727E+00  1.81843810E-02  0.00000000E+00
 -2.64094727E+00  1.81843810E-02  0.00000000E+00 -2.64094727E+00  1.81843810E-02
  0.00000000E+00 -2.64094727E+00  1.81843810E-02  0.00000000E+00 -2.64094727E+00
  1.81843810E-02  0.00000000E+00 -1.30469536E+00 -2.29612747E+00  0.00000000E+00
 -1.30469536E+00 -2.29612747E+00  0.00000000E+00 -1.30469536E+00 -2.29612747E+00
  0.00000000E+00 -1.30469536E+00 -2.29612747E+00  0.00000000E+00 -1.30469536E+00
 -2.29612747E+00  0.00000000E+00 -1.30469536E+00 -2.29612747E+00  0.00000000E+00
  1.30469536E+00 -2.29612747E+00  0.00000000E+00  1.30469536E+00 -2.29612747E+00
  0.00000000E+00  1.30469536E+00 -2.29612747E+00  0.00000000E+00  1.30469536E+00
 -2.29612747E+00  0.00000000E+00  1.30469536E+00 -2.29612747E+00  0.00000000E+00
  1.30469536E+00 -2.29612747E+00  0.00000000E+00  4.65899540E+00 -3.37705869E-01
  0.00000000E+00  4.65899540E+00 -3.37705869E-01  0.00000000E+00  4.65899540E+00
 -3.37705869E-01  0.00000000E+00  4.65899540E+00 -3.37705869E-01  0.00000000E+00
  4.65899540E+00 -3.37705869E-01  0.00000000E+00  2.03704366E+00  4.20353878E+00
  0.00000000E+00  2.03704366E+00  4.20353878E+00  0.00000000E+00  2.03704366E+00
  4.20353878E+00  0.00000000E+00  2.03704366E+00  4.20353878E+00  0.00000000E+00
  2.03704366E+00  4.20353878E+00  0.00000000E+00 -2.03704366E+00  4.20353878E+00
  0.00000000E+00 -2.03704366E+00  4.20353878E+00  0.00000000E+00 -2.03704366E+00
  4.20353878E+00  0.00000000E+00 -2.03704366E+00  4.20353878E+00  0.00000000E+00
 -2.03704366E+00  4.20353878E+00  0.00000000E+00 -4.65899540E+00 -3.37705869E-01
  0.00000000E+00 -4.65899540E+00 -3.37705869E-01  0.00000000E+00 -4.65899540E+00
 -3.37705869E-01  0.00000000E+00 -4.65899540E+00 -3.37705869E-01  0.00000000E+00
 -4.65899540E+00 -3.37705869E-01  0.00000000E+00 -2.62182889E+00 -3.86591553E+00
  0.00000000E+00 -2.62182889E+00 -3.86591553E+00  0.00000000E+00 -2.62182889E+00
 -3.86591553E+00  0.00000000E+00 -2.62182889E+00 -3.86591553E+00  0.00000000E+00
 -2.62182889E+00 -3.86591553E+00  0.00000000E+00  2.62182889E+00 -3.86591553E+00
  0.00000000E+00  2.62182889E+00 -3.86591553E+00  0.00000000E+00  2.62182889E+00
 -3.86591553E+00  0.00000000E+00  2.62182889E+00 -3.86591553E+00  0.00000000E+00
  2.62182889E+00 -3.86591553E+00  0.00000000E+00
Num ILSW                                   I              100
ILSW                                       I   N=         100
           0           0           0           0           2           0
           0           0           0           0           0          -1
           5           0           0           0           0           0
           0           0           0           0           0           0
           1           1           0           0           0           0
           0           0      100000           0          -1           0
           0           0           0           0           0           0
           0           0           0           1           0           0
           0 -2000000000           1           0           0           0
           0           0           4          52           0           0
           0           0           0           0           0           0
           0           0           0          12           0           1
           0           0           0           0           0           0
           0           0           0           0           0           0
           0           0           0           0           0           0
           0           0           0           0           0           0
           0           0           0           0
Num RLSW                                   I               52
RLSW                                       R   N=          52
  1.00000000E+00  1.00000000E+00  1.00000000E+00  1.00000000E+00  1.00000000E+00
  0.00000000E+00  0.00000000E+00  1.00000000E+00  0.00000000E+00  0.00000000E+00
  0.00000000E+00  0.00000000E+00  1.00000000E+00  0.00000000E+00  0.00000000E+00
  0.00000000E+00  0.00000000E+00  1.00000000E+00  0.00000000E+00  0.00000000E+00
  0.00000000E+00  0.00000000E+00  1.00000000E+00  0.00000000E+00  0.00000000E+00
  0.00000000E+00  0.00000000E+00  1.00000000E+00  0.00000000E+00  0.00000000E+00
  0.00000000E+00  0.00000000E+00  1.00000000E+00  0.00000000E+00  0.00000000E+00
  0.00000000E+00  0.00000000E+00  0.00000000E+00  1.00000000E+00  1.00000000E+00
  0.00000000E+00  1.00000000E+00  0.00000000E+00  0.00000000E+00  0.00000000E+00
  0.00000000E+00  0.00000000E+00  0.00000000E+00  0.00000000E+00  0.00000000E+00
  0.00000000E+00  0.00000000E+00
MxBond                                     I                3
NBond                                      I   N=          12
           3           3           3           3           3           3
           1           1           1           1           1           1
IBond                                      I   N=          36
           2           6           7           1           3           8
           2           4           9           3           5          10
           4           6          11           1           5          12
           1           0           0           2           0           0
           3           0           0           4           0           0
           5           0           0           6           0           0
RBond                                      R   N=          36
  1.50000000E+00  1.50000000E+00  1.00000000E+00  1.50000000E+00  1.50000000E+00
  1.00000000E+00  1.50000000E+00  1.50000000E+00  1.00000000E+00  1.50000000E+00
  1.50000000E+00  1.00000000E+00  1.50000000E+00  1.50000000E+00  1.00000000E+00
  1.50000000E+00  1.50000000E+00  1.00000000E+00  1.00000000E+00  0.00000000E+00
  0.00000000E+00  1.00000000E+00  0.00000000E+00  0.00000000E+00  1.00000000E+00
  0.00000000E+00  0.00000000E+00  1.00000000E+00  0.00000000E+00  0.00000000E+00
  1.00000000E+00  0.00000000E+00  0.00000000E+00  1.00000000E+00  0.00000000E+00
  0.00000000E+00
Virial Ratio                               R      2.001280864956674E+00
SCF Energy                                 R     -2.307330047747110E+02
MP2 Energy                                 R     -2.315638918890855E+02
Total Energy                               R     -2.315638918890855E+02
Post-SCF wavefunction norm                 R      1.144294504229336E+00
RMS Density                                R      8.719506148861963E-09
Job Status                                 I                1
Nuclear derivative order                   I                0
External E-field                           R   N=          35
  0.00000000E+00  0.00000000E+00  0.00000000E+00  0.00000000E+00  0.00000000E+00
  0.00000000E+00  0.00000000E+00  0.00000000E+00  0.00000000E+00  0.00000000E+00
  0.00000000E+00  0.00000000E+00  0.00000000E+00  0.00000000E+00  0.00000000E+00
  0.00000000E+00  0.00000000E+00  0.00000000E+00  0.00000000E+00  0.00000000E+00
  0.00000000E+00  0.00000000E+00  0.00000000E+00  0.00000000E+00  0.00000000E+00
  0.00000000E+00  0.00000000E+00  0.00000000E+00  0.00000000E+00  0.00000000E+00
  0.00000000E+00  0.00000000E+00  0.00000000E+00  0.00000000E+00  0.00000000E+00
IOpCl                                      I                0
IROHF                                      I                0
Alpha Orbital Energies                     R   N=         174
 -1.12408186E+01 -1.12402610E+01 -1.12402583E+01 -1.12390334E+01 -1.12390307E+01
 -1.12384410E+01 -1.15199001E+00 -1.01791142E+00 -1.01790759E+00 -8.27517325E-01
 -8.27514954E-01 -7.17993675E-01 -6.41446058E-01 -6.16092607E-01 -5.89793296E-01
 -5.89784418E-01 -5.01679434E-01 -4.90102787E-01 -4.90090912E-01 -3.37749867E-01
 -3.37747556E-01  4.20212784E-02  4.89117355E-02  4.89120838E-02  6.64579493E-02
  6.64582461E-02  8.83313996E-02  1.08031947E-01  1.08035870E-01  1.29212755E-01
  1.52625605E-01  1.52626187E-01  1.56893537E-01  1.62061337E-01  1.77166930E-01
  1.77168546E-01  1.85985171E-01  1.85985421E-01  1.91933996E-01  2.09258663E-01
  2.13015504E-01  2.13015957E-01  2.15678656E-01  2.15680821E-01  2.18061864E-01
  2.27596878E-01  2.27598253E-01  2.50368032E-01  2.50368708E-01  2.88329642E-01
  2.88330371E-01  3.01925737E-01  3.32471538E-01  3.34074582E-01  3.66886644E-01
  3.91506781E-01  3.91513940E-01  4.37001626E-01  4.37006261E-01  4.41060853E-01
  4.91201173E-01  4.91204578E-01  5.16181607E-01  5.16186910E-01  5.93799630E-01
  6.31582071E-01  7.04644055E-01  7.14831673E-01  7.23805872E-01  7.23806186E-01
  7.52646163E-01  7.52650414E-01  7.57493867E-01  7.57495422E-01  7.61474277E-01
  7.96046026E-01  8.18751667E-01  8.18753253E-01  8.85292306E-01  9.24559487E-01
  9.24559508E-01  9.53328963E-01  9.53329714E-01  9.71938864E-01  1.01140000E+00
  1.02043672E+00  1.02043880E+00  1.05812620E+00  1.05812682E+00  1.09253974E+00
  1.12464532E+00  1.12464546E+00  1.13702990E+00  1.16600486E+00  1.21586863E+00
  1.21587958E+00  1.24674955E+00  1.31916868E+00  1.31918336E+00  1.39618957E+00
  1.39619941E+00  1.52936161E+00  1.56606781E+00  1.66563250E+00  1.73619932E+00
  1.73622997E+00  1.77177852E+00  1.81482934E+00  1.82842808E+00  1.82843146E+00
  1.87012632E+00  1.87014738E+00  1.97836837E+00  1.97839155E+00  1.99271289E+00
  2.05382467E+00  2.05383312E+00  2.15812776E+00  2.15813193E+00  2.16933293E+00
  2.17092400E+00  2.21275077E+00  2.21277279E+00  2.22994820E+00  2.22995445E+00
  2.30213704E+00  2.36388699E+00  2.36389472E+00  2.40838782E+00  2.40838954E+00
  2.55252027E+00  2.67718933E+00  2.67720059E+00  2.74077545E+00  2.74609708E+00
  2.81361438E+00  2.81363791E+00  2.89628170E+00  2.91890011E+00  2.96853354E+00
  2.96853732E+00  2.99909393E+00  2.99909904E+00  3.05616466E+00  3.09214826E+00
  3.09215176E+00  3.12813929E+00  3.19031293E+00  3.19031654E+00  3.29457595E+00
  3.29457905E+00  3.33246346E+00  3.33246766E+00  3.33496463E+00  3.47672959E+00
  3.53619493E+00  3.74897232E+00  3.74897806E+00  3.88706259E+00  3.91780450E+00
  3.91781744E+00  4.05525022E+00  4.39837738E+00  4.39838617E+00  4.51400797E+00
  4.56416937E+00  4.56416975E+00  5.26370802E+00  2.47271866E+01  2.51092929E+01
  2.51092958E+01  2.52980699E+01  2.52980857E+01  2.53884782E+01
Alpha MO coefficients                      R   N=       30276
  2.30273566E-01  1.90661717E-01 -3.23296521E-05  1.98844603E-05  1.89556603E-15
  2.01908275E-03 -1.68983732E-04 -9.72536153E-06 -4.07243219E-15 -3.70902967E-04
  1.69152062E-05  1.27842578E-05  7.22660844E-15 -1.25477800E-04 -2.05384238E-04
  6.40066144E-05 -1.88279198E-14 -1.22199672E-04  3.15728376E-16  7.53614484E-17
 -6.06717363E-05 -2.45625688E-05  2.30239922E-01  1.90633746E-01  6.88108363E-07
 -3.79781497E-05 -2.49723045E-16  2.01940351E-03 -9.33326617E-05 -1.41435632E-04
  7.88139459E-16 -3.70801804E-04  2.00163442E-05  7.38539265E-06 -3.78584522E-15
 -1.29519641E-04 -5.01190325E-05 -2.08260368E-04  1.59498717E-14 -1.22010725E-04
 -3.47600720E-16 -4.54157973E-16  9.37747944E-06 -6.46477607E-05  2.30239922E-01
  1.90633746E-01 -6.88108355E-07 -3.79781497E-05 -3.46754344E-16  2.01940351E-03
  9.33326617E-05 -1.41435632E-04  5.55369962E-16 -3.70801809E-04 -2.00163449E-05
  7.38539775E-06  1.13252755E-15 -1.29519864E-04  5.01190250E-05 -2.08260311E-04
 -1.08107018E-14 -1.22010725E-04 -2.16004242E-16  7.58301419E-17  9.37747939E-06
  6.46477606E-05  2.30273566E-01  1.90661717E-01  3.23296521E-05  1.98844603E-05
 -2.61698846E-16  2.01908275E-03  1.68983732E-04 -9.72536152E-06  8.70996758E-16
 -3.70902962E-04 -1.69152014E-05  1.27842596E-05 -2.06684607E-15 -1.25477580E-04
  2.05384290E-04  6.40066368E-05  9.41631359E-15 -1.22199672E-04  6.38013589E-17
 -3.18478678E-16 -6.06717364E-05  2.45625687E-05  2.29219965E-01  1.89789107E-01
  3.28296050E-05  1.85644736E-05  6.65568139E-17  2.01116759E-03  7.56071961E-05
  1.51437436E-04 -2.47460101E-16 -3.70215243E-04  3.62559765E-06 -2.10928785E-05
  1.97724582E-15 -1.23319858E-04  1.52630629E-04  1.44911327E-04 -1.05290211E-14
 -1.21387570E-04  2.08845111E-16 -3.30193811E-16  5.09006737E-05 -4.03704068E-05
  2.29219965E-01  1.89789107E-01 -3.28296050E-05  1.85644736E-05  1.62921661E-17
  2.01116759E-03 -7.56071961E-05  1.51437436E-04  7.20476428E-16 -3.70215238E-04
 -3.62560174E-06 -2.10928752E-05 -3.73907932E-15 -1.23319635E-04 -1.52630675E-04
  1.44911361E-04  1.45845295E-14 -1.21387570E-04  7.59245710E-17  4.49853101E-16
  5.09006737E-05  4.03704069E-05  1.76589264E-04 -4.77841281E-05  2.63181584E-04
  1.07047775E-04 -1.36187713E-05  2.84376783E-05 -2.86581165E-16  1.76606876E-04
 -4.76130278E-05  2.63586287E-04  1.07149258E-04  1.76904308E-05 -2.60492442E-05
  4.66143728E-16  1.76606876E-04 -4.76130285E-05  2.63586285E-04  1.07149246E-04
 -1.76904308E-05 -2.60492442E-05 -1.54384611E-16  1.76589264E-04 -4.77841274E-05
  2.63181586E-04  1.07047787E-04  1.36187714E-05  2.84376783E-05  8.95443136E-17
  1.75852171E-04 -4.70381325E-05  2.61914343E-04  1.04963359E-04  3.13225219E-05
 -2.17230030E-06 -1.70146376E-16  1.75852171E-04 -4.70381317E-05  2.61914345E-04
  1.04963372E-04 -3.13225219E-05 -2.17230023E-06  3.68313480E-16  3.24727572E-01
  2.68907944E-01 -8.67705507E-06  3.70633343E-05  4.44020172E-16  2.64863081E-03
 -1.15179130E-04 -1.65514343E-05 -6.02234302E-16 -2.90213811E-04 -7.74184964E-06
 -1.46151314E-06  7.66688847E-17 -1.28126722E-03 -1.14832714E-03  3.73587713E-04
  2.84374953E-16 -2.02228777E-04  2.12237235E-17  4.35765639E-17 -8.18592188E-05
 -6.77135962E-05  1.80301549E-01  1.49311878E-01  1.51171242E-04 -9.63788602E-05
  6.34690351E-16  1.44459039E-03  1.00324242E-04 -5.01329415E-05 -6.33140365E-16
 -1.14590968E-04 -1.49093352E-04  1.41263544E-04  1.12216901E-15 -2.05659775E-03
  7.18518289E-04 -8.99304437E-04 -2.91108006E-16 -1.20474984E-04 -6.09840247E-18
 -1.56232061E-17 -8.31346109E-05 -1.24846728E-04 -1.80301542E-01 -1.49311873E-01
  1.51171244E-04  9.63788609E-05 -4.39337732E-16 -1.44459034E-03  1.00324246E-04
  5.01329396E-05  6.38354261E-16  1.14590961E-04 -1.49093354E-04 -1.41263546E-04
 -8.16233602E-16  2.05659774E-03  7.18518307E-04  8.99304418E-04 -1.25741928E-16
  1.20474980E-04 -1.11122711E-16  2.88127629E-17  8.31346116E-05 -1.24846727E-04
 -3.24727571E-01 -2.68907944E-01 -8.67705497E-06 -3.70633297E-05  5.14547580E-16
 -2.64863081E-03 -1.15179132E-04  1.65514378E-05 -5.56621805E-16  2.90213812E-04
 -7.74185085E-06  1.46150744E-06  1.60069018E-15  1.28126719E-03 -1.14832714E-03
 -3.73587684E-04 -8.42589530E-16  2.02228777E-04  7.76350217E-17 -1.38491327E-16