 Entering Gaussian System, Link 0=g16
 Initial command:
 /sw/cluster/pub/apps//g16/l1.exe "/data/mmaximo/31223/Gau-2336.inp" -scrdir="/data/mmaximo/31223/"
 Entering Link 1 = /sw/cluster/pub/apps//g16/l1.exe PID=      2337.
  
 Copyright (c) 1988,1990,1992,1993,1995,1998,2003,2009,2016,
            Gaussian, Inc.  All Rights Reserved.
  
 This is part of the Gaussian(R) 16 program.  It is based on
 the Gaussian(R) 09 system (copyright 2009, Gaussian, Inc.),
 the Gaussian(R) 03 system (copyright 2003, Gaussian, Inc.),
 the Gaussian(R) 98 system (copyright 1998, Gaussian, Inc.),
 the Gaussian(R) 94 system (copyright 1995, Gaussian, Inc.),
 the Gaussian 92(TM) system (copyright 1992, Gaussian, Inc.),
 the Gaussian 90(TM) system (copyright 1990, Gaussian, Inc.),
 the Gaussian 88(TM) system (copyright 1988, Gaussian, Inc.),
 the Gaussian 86(TM) system (copyright 1986, Carnegie Mellon
 University), and the Gaussian 82(TM) system (copyright 1983,
 Carnegie Mellon University). Gaussian is a federally registered
 trademark of Gaussian, Inc.
  
 This software contains proprietary and confidential information,
 including trade secrets, belonging to Gaussian, Inc.
  
 This software is provided under written license and may be
 used, copied, transmitted, or stored only in accord with that
 written license.
  
 The following legend is applicable only to US Government
 contracts under FAR:
  
                    RESTRICTED RIGHTS LEGEND
  
 Use, reproduction and disclosure by the US Government is
 subject to restrictions as set forth in subparagraphs (a)
 and (c) of the Commercial Computer Software - Restricted
 Rights clause in FAR 52.227-19.
  
 Gaussian, Inc.
 340 Quinnipiac St., Bldg. 40, Wallingford CT 06492
  
  
 ---------------------------------------------------------------
 Warning -- This program may not be used in any manner that
 competes with the business of Gaussian, Inc. or will provide
 assistance to any competitor of Gaussian, Inc.  The licensee
 of this program is prohibited from giving any competitor of
 Gaussian, Inc. access to this program.  By using this program,
 the user acknowledges that Gaussian, Inc. is engaged in the
 business of creating and licensing software in the field of
 computational chemistry and represents and warrants to the
 licensee that it is not a competitor of Gaussian, Inc. and that
 it will not use this program in any manner prohibited above.
 ---------------------------------------------------------------
  

 Cite this work as:
 Gaussian 16, Revision A.03,
 M. J. Frisch, G. W. Trucks, H. B. Schlegel, G. E. Scuseria, 
 M. A. Robb, J. R. Cheeseman, G. Scalmani, V. Barone, 
 G. A. Petersson, H. Nakatsuji, X. Li, M. Caricato, A. V. Marenich, 
 J. Bloino, B. G. Janesko, R. Gomperts, B. Mennucci, H. P. Hratchian, 
 J. V. Ortiz, A. F. Izmaylov, J. L. Sonnenberg, D. Williams-Young, 
 F. Ding, F. Lipparini, F. Egidi, J. Goings, B. Peng, A. Petrone, 
 T. Henderson, D. Ranasinghe, V. G. Zakrzewski, J. Gao, N. Rega, 
 G. Zheng, W. Liang, M. Hada, M. Ehara, K. Toyota, R. Fukuda, 
 J. Hasegawa, M. Ishida, T. Nakajima, Y. Honda, O. Kitao, H. Nakai, 
 T. Vreven, K. Throssell, J. A. Montgomery, Jr., J. E. Peralta, 
 F. Ogliaro, M. J. Bearpark, J. J. Heyd, E. N. Brothers, K. N. Kudin, 
 V. N. Staroverov, T. A. Keith, R. Kobayashi, J. Normand, 
 K. Raghavachari, A. P. Rendell, J. C. Burant, S. S. Iyengar, 
 J. Tomasi, M. Cossi, J. M. Millam, M. Klene, C. Adamo, R. Cammi, 
 J. W. Ochterski, R. L. Martin, K. Morokuma, O. Farkas, 
 J. B. Foresman, and D. J. Fox, Gaussian, Inc., Wallingford CT, 2016.
 
 ******************************************
 Gaussian 16:  ES64L-G16RevA.03 25-Dec-2016
                12-Feb-2025 
 ******************************************
 %chk=clamp-10.chk
 ------------------------------------
 #P MP2/6-311++G** nosymm Density=MP2
 ------------------------------------
 1/30=1,38=1,172=1/1;
 2/12=2,15=1,17=6,18=5,40=1/2;
 3/5=4,6=6,7=1111,11=9,25=1,30=1,71=1/1,2,3;
 4//1;
 5/5=2,38=5/2;
 8/6=4,10=2/1;
 9/15=1,16=-3/6;
 10/5=1,13=10,31=1/2;
 6/7=2,8=2,9=2,10=2,22=2/1;
 99/5=1,9=1/99;
 Leave Link    1 at Wed Feb 12 15:50:26 2025, MaxMem=           0 cpu:               0.0 elap:               0.0
 (Enter /sw/cluster/pub/apps//g16/l101.exe)
 --------
 Clamp-10
 --------
 Symbolic Z-matrix:
 Charge =  0 Multiplicity = 1
 C                     1.39753   0.00962   0. 
 C                     0.70708   1.20544   0. 
 C                    -0.70708   1.20544   0. 
 C                    -1.39753   0.00962   0. 
 C                    -0.69042  -1.21506   0. 
 C                     0.69042  -1.21506   0. 
 H                     2.46543  -0.17871   0. 
 H                     1.07796   2.22442   0. 
 H                    -1.07796   2.22442   0. 
 H                    -2.46543  -0.17871   0. 
 H                    -1.38741  -2.04575   0. 
 H                     1.38741  -2.04575   0. 
 
 ITRead=  0  0  0  0  0  0  0  0  0  0  0  0
 MicOpt= -1 -1 -1 -1 -1 -1 -1 -1 -1 -1 -1 -1
 NAtoms=     12 NQM=       12 NQMF=       0 NMMI=      0 NMMIF=      0
                NMic=       0 NMicF=      0.
                    Isotopes and Nuclear Properties:
 (Nuclear quadrupole moments (NQMom) in fm**2, nuclear magnetic moments (NMagM)
  in nuclear magnetons)

  Atom         1           2           3           4           5           6           7           8           9          10
 IAtWgt=          12          12          12          12          12          12           1           1           1           1
 AtmWgt=  12.0000000  12.0000000  12.0000000  12.0000000  12.0000000  12.0000000   1.0078250   1.0078250   1.0078250   1.0078250
 NucSpn=           0           0           0           0           0           0           1           1           1           1
 AtZEff=  -0.0000000  -0.0000000  -0.0000000  -0.0000000  -0.0000000  -0.0000000  -0.0000000  -0.0000000  -0.0000000  -0.0000000
 NQMom=    0.0000000   0.0000000   0.0000000   0.0000000   0.0000000   0.0000000   0.0000000   0.0000000   0.0000000   0.0000000
 NMagM=    0.0000000   0.0000000   0.0000000   0.0000000   0.0000000   0.0000000   2.7928460   2.7928460   2.7928460   2.7928460
 AtZNuc=   6.0000000   6.0000000   6.0000000   6.0000000   6.0000000   6.0000000   1.0000000   1.0000000   1.0000000   1.0000000

  Atom        11          12
 IAtWgt=           1           1
 AtmWgt=   1.0078250   1.0078250
 NucSpn=           1           1
 AtZEff=  -0.0000000  -0.0000000
 NQMom=    0.0000000   0.0000000
 NMagM=    2.7928460   2.7928460
 AtZNuc=   1.0000000   1.0000000
 Leave Link  101 at Wed Feb 12 15:50:26 2025, MaxMem=   104857600 cpu:               0.0 elap:               0.0
 (Enter /sw/cluster/pub/apps//g16/l202.exe)
                          Input orientation:                          
 ---------------------------------------------------------------------
 Center     Atomic      Atomic             Coordinates (Angstroms)
 Number     Number       Type             X           Y           Z
 ---------------------------------------------------------------------
      1          6           0        1.397529    0.009623    0.000000
      2          6           0        0.707079    1.205443    0.000000
      3          6           0       -0.707079    1.205443    0.000000
      4          6           0       -1.397529    0.009623    0.000000
      5          6           0       -0.690415   -1.215058    0.000000
      6          6           0        0.690415   -1.215058    0.000000
      7          1           0        2.465434   -0.178706    0.000000
      8          1           0        1.077957    2.224417    0.000000
      9          1           0       -1.077957    2.224417    0.000000
     10          1           0       -2.465434   -0.178706    0.000000
     11          1           0       -1.387412   -2.045754    0.000000
     12          1           0        1.387412   -2.045754    0.000000
 ---------------------------------------------------------------------
                    Distance matrix (angstroms):
                    1          2          3          4          5
     1  C    0.000000
     2  C    1.380836   0.000000
     3  C    2.420612   1.414158   0.000000
     4  C    2.795058   2.420612   1.380836   0.000000
     5  C    2.420610   2.794963   2.420559   1.414162   0.000000
     6  C    1.414162   2.420559   2.794963   2.420610   1.380830
     7  H    1.084384   2.237785   3.461316   3.867551   3.321658
     8  H    2.237731   1.084370   2.055398   3.321648   3.867445
     9  H    3.321648   2.055398   1.084370   2.237731   3.461240
    10  H    3.867551   3.461316   2.237785   1.084384   2.055412
    11  H    3.461282   3.867451   3.321617   2.055402   1.084371
    12  H    2.055402   3.321617   3.867451   3.461282   2.237727
                    6          7          8          9         10
     6  C    0.000000
     7  H    2.055412   0.000000
     8  H    3.461240   2.774904   0.000000
     9  H    3.867445   4.281428   2.155914   0.000000
    10  H    3.321658   4.930868   4.281428   2.774904   0.000000
    11  H    2.237727   4.281389   4.930761   4.281370   2.155922
    12  H    1.084371   2.155922   4.281370   4.930761   4.281389
                   11         12
    11  H    0.000000
    12  H    2.774824   0.000000
 Symmetry turned off by external request.
 Stoichiometry    C6H6
 Framework group  C2V[SGV(C6H6)]
 Deg. of freedom    11
 Full point group                 C2V     NOp   4
 Rotational constants (GHZ):           5.6923055           5.6920199           2.8460813
 Leave Link  202 at Wed Feb 12 15:50:26 2025, MaxMem=   104857600 cpu:               0.0 elap:               0.0
 (Enter /sw/cluster/pub/apps//g16/l301.exe)
 Standard basis: 6-311++G(d,p) (5D, 7F)
 Ernie: Thresh=  0.10000D-02 Tol=  0.10000D-05 Strict=F.
   174 basis functions,   270 primitive gaussians,   180 cartesian basis functions
    21 alpha electrons       21 beta electrons
       nuclear repulsion energy       203.3573667076 Hartrees.
 IExCor=    0 DFT=F Ex=HF Corr=None ExCW=0 ScaHFX=  1.000000
 ScaDFX=  1.000000  1.000000  1.000000  1.000000 ScalE2=  1.000000  1.000000
 IRadAn=      5 IRanWt=     -1 IRanGd=            0 ICorTp=0 IEmpDi=  4
 NAtoms=   12 NActive=   12 NUniq=   12 SFac= 1.00D+00 NAtFMM=   60 NAOKFM=F Big=F
 Integral buffers will be    131072 words long.
 Raffenetti 1 integral format.
 Two-electron integral symmetry is turned off.
 Leave Link  301 at Wed Feb 12 15:50:26 2025, MaxMem=   104857600 cpu:               0.0 elap:               0.0
 (Enter /sw/cluster/pub/apps//g16/l302.exe)
 NPDir=0 NMtPBC=     1 NCelOv=     1 NCel=       1 NClECP=     1 NCelD=      1
         NCelK=      1 NCelE2=     1 NClLst=     1 CellRange=     0.0.
 One-electron integrals computed using PRISM.
 NBasis=   174 RedAO= T EigKep=  1.08D-06  NBF=   174
 NBsUse=   174 1.00D-06 EigRej= -1.00D+00 NBFU=   174
 Leave Link  302 at Wed Feb 12 15:50:26 2025, MaxMem=   104857600 cpu:               0.0 elap:               0.0
 (Enter /sw/cluster/pub/apps//g16/l303.exe)
 DipDrv:  MaxL=1.
 Leave Link  303 at Wed Feb 12 15:50:26 2025, MaxMem=   104857600 cpu:               0.0 elap:               0.0
 (Enter /sw/cluster/pub/apps//g16/l401.exe)
 ExpMin= 3.60D-02 ExpMax= 4.56D+03 ExpMxC= 6.82D+02 IAcc=3 IRadAn=         5 AccDes= 0.00D+00
 Harris functional with IExCor=  205 and IRadAn=       5 diagonalized for initial guess.
 HarFok:  IExCor=  205 AccDes= 0.00D+00 IRadAn=         5 IDoV= 1 UseB2=F ITyADJ=14
 ICtDFT=  3500011 ScaDFX=  1.000000  1.000000  1.000000  1.000000
 FoFCou: FMM=F IPFlag=           0 FMFlag=      100000 FMFlg1=           0
         NFxFlg=           0 DoJE=T BraDBF=F KetDBF=T FulRan=T
         wScrn=  0.000000 ICntrl=       500 IOpCl=  0 I1Cent=   200000004 NGrid=           0
         NMat0=    1 NMatS0=      1 NMatT0=    0 NMatD0=    1 NMtDS0=    0 NMtDT0=    0
 Symmetry not used in FoFCou.
 Harris En= -231.123758977002    
 JPrj=0 DoOrth=F DoCkMO=F.
 Leave Link  401 at Wed Feb 12 15:50:27 2025, MaxMem=   104857600 cpu:               0.7 elap:               0.7
 (Enter /sw/cluster/pub/apps//g16/l502.exe)
 Two-electron integral symmetry not used.
 Closed shell SCF:
 Using DIIS extrapolation, IDIIS=  1040.
 NGot=   104857600 LenX=   104790300 LenY=   104757459
 Requested convergence on RMS density matrix=1.00D-08 within 128 cycles.
 Requested convergence on MAX density matrix=1.00D-06.
 Requested convergence on             energy=1.00D-06.
 No special actions if energy rises.
 Fock matrices will be formed incrementally for  20 cycles.

 Cycle   1  Pass 0  IDiag  1:
 FoFJK:  IHMeth= 1 ICntrl=       0 DoSepK=F KAlg= 0 I1Cent=           0 FoldK=F
 IRaf= 990000000 NMat=       1 IRICut=       1 DoRegI=T DoRafI=F ISym2E= 0 IDoP0=0 IntGTp=1.
 FoFCou: FMM=F IPFlag=           0 FMFlag=      100000 FMFlg1=           0
         NFxFlg=           0 DoJE=F BraDBF=F KetDBF=F FulRan=T
         wScrn=  0.000000 ICntrl=         0 IOpCl=  0 I1Cent=           0 NGrid=           0
         NMat0=    1 NMatS0=      1 NMatT0=    0 NMatD0=    1 NMtDS0=    0 NMtDT0=    0
 Symmetry not used in FoFCou.
 E= -230.441322742110    
 DIIS: error= 6.88D-02 at cycle   1 NSaved=   1.
 NSaved= 1 IEnMin= 1 EnMin= -230.441322742110     IErMin= 1 ErrMin= 6.88D-02
 ErrMax= 6.88D-02  0.00D+00 EMaxC= 1.00D-01 BMatC= 5.01D-01 BMatP= 5.01D-01
 IDIUse=3 WtCom= 3.12D-01 WtEn= 6.88D-01
 Coeff-Com:  0.100D+01
 Coeff-En:   0.100D+01
 Coeff:      0.100D+01
 Gap=     0.478 Goal=   None    Shift=    0.000
 GapD=    0.478 DampG=2.000 DampE=0.500 DampFc=1.0000 IDamp=-1.
 RMSDP=9.63D-03 MaxDP=2.75D-01              OVMax= 1.56D-01

 Cycle   2  Pass 0  IDiag  1:
 RMSU=  8.32D-03    CP:  1.24D+00
 E= -230.687076939949     Delta-E=       -0.245754197839 Rises=F Damp=F
 DIIS: error= 2.95D-02 at cycle   2 NSaved=   2.
 NSaved= 2 IEnMin= 2 EnMin= -230.687076939949     IErMin= 2 ErrMin= 2.95D-02
 ErrMax= 2.95D-02  0.00D+00 EMaxC= 1.00D-01 BMatC= 4.69D-02 BMatP= 5.01D-01
 IDIUse=3 WtCom= 7.05D-01 WtEn= 2.95D-01
 Coeff-Com:  0.155D+00 0.845D+00
 Coeff-En:   0.000D+00 0.100D+01
 Coeff:      0.109D+00 0.891D+00
 Gap=     0.418 Goal=   None    Shift=    0.000
 RMSDP=3.55D-03 MaxDP=8.98D-02 DE=-2.46D-01 OVMax= 5.68D-02

 Cycle   3  Pass 0  IDiag  1:
 RMSU=  3.42D-03    CP:  1.19D+00  9.83D-01
 E= -230.727600752737     Delta-E=       -0.040523812787 Rises=F Damp=F
 DIIS: error= 8.07D-03 at cycle   3 NSaved=   3.
 NSaved= 3 IEnMin= 3 EnMin= -230.727600752737     IErMin= 3 ErrMin= 8.07D-03
 ErrMax= 8.07D-03  0.00D+00 EMaxC= 1.00D-01 BMatC= 5.53D-03 BMatP= 4.69D-02
 IDIUse=3 WtCom= 9.19D-01 WtEn= 8.07D-02
 Coeff-Com: -0.197D-01 0.228D+00 0.792D+00
 Coeff-En:   0.000D+00 0.000D+00 0.100D+01
 Coeff:     -0.182D-01 0.210D+00 0.808D+00
 Gap=     0.379 Goal=   None    Shift=    0.000
 RMSDP=1.11D-03 MaxDP=3.38D-02 DE=-4.05D-02 OVMax= 1.53D-02

 Cycle   4  Pass 0  IDiag  1:
 RMSU=  3.63D-04    CP:  1.22D+00  1.09D+00  9.98D-01
 E= -230.732938706284     Delta-E=       -0.005337953547 Rises=F Damp=F
 DIIS: error= 1.31D-03 at cycle   4 NSaved=   4.
 NSaved= 4 IEnMin= 4 EnMin= -230.732938706284     IErMin= 4 ErrMin= 1.31D-03
 ErrMax= 1.31D-03  0.00D+00 EMaxC= 1.00D-01 BMatC= 3.59D-05 BMatP= 5.53D-03
 IDIUse=3 WtCom= 9.87D-01 WtEn= 1.31D-02
 Coeff-Com: -0.173D-02-0.162D-01 0.792D-02 0.101D+01
 Coeff-En:   0.000D+00 0.000D+00 0.000D+00 0.100D+01
 Coeff:     -0.171D-02-0.160D-01 0.782D-02 0.101D+01
 Gap=     0.380 Goal=   None    Shift=    0.000
 RMSDP=2.29D-04 MaxDP=7.35D-03 DE=-5.34D-03 OVMax= 2.14D-03

 Cycle   5  Pass 0  IDiag  1:
 RMSU=  5.38D-05    CP:  1.22D+00  1.11D+00  1.04D+00  1.13D+00
 E= -230.732997240275     Delta-E=       -0.000058533991 Rises=F Damp=F
 DIIS: error= 2.29D-04 at cycle   5 NSaved=   5.
 NSaved= 5 IEnMin= 5 EnMin= -230.732997240275     IErMin= 5 ErrMin= 2.29D-04
 ErrMax= 2.29D-04  0.00D+00 EMaxC= 1.00D-01 BMatC= 2.13D-06 BMatP= 3.59D-05
 IDIUse=3 WtCom= 9.98D-01 WtEn= 2.29D-03
 Coeff-Com:  0.110D-02-0.851D-02-0.395D-01-0.184D+00 0.123D+01
 Coeff-En:   0.000D+00 0.000D+00 0.000D+00 0.000D+00 0.100D+01
 Coeff:      0.110D-02-0.850D-02-0.394D-01-0.184D+00 0.123D+01
 Gap=     0.380 Goal=   None    Shift=    0.000
 RMSDP=4.58D-05 MaxDP=1.15D-03 DE=-5.85D-05 OVMax= 1.07D-03

 Cycle   6  Pass 0  IDiag  1:
 RMSU=  1.88D-05    CP:  1.22D+00  1.11D+00  1.04D+00  1.16D+00  1.34D+00
 E= -230.733003674666     Delta-E=       -0.000006434391 Rises=F Damp=F
 DIIS: error= 9.73D-05 at cycle   6 NSaved=   6.
 NSaved= 6 IEnMin= 6 EnMin= -230.733003674666     IErMin= 6 ErrMin= 9.73D-05
 ErrMax= 9.73D-05  0.00D+00 EMaxC= 1.00D-01 BMatC= 1.17D-07 BMatP= 2.13D-06
 IDIUse=1 WtCom= 1.00D+00 WtEn= 0.00D+00
 Coeff-Com: -0.347D-03 0.326D-02 0.145D-01 0.520D-01-0.478D+00 0.141D+01
 Coeff:     -0.347D-03 0.326D-02 0.145D-01 0.520D-01-0.478D+00 0.141D+01
 Gap=     0.380 Goal=   None    Shift=    0.000
 RMSDP=1.78D-05 MaxDP=4.49D-04 DE=-6.43D-06 OVMax= 6.36D-04

 Cycle   7  Pass 0  IDiag  1:
 RMSU=  4.83D-06    CP:  1.22D+00  1.11D+00  1.04D+00  1.15D+00  1.40D+00
                    CP:  1.39D+00
 E= -230.733004524767     Delta-E=       -0.000000850101 Rises=F Damp=F
 DIIS: error= 4.68D-05 at cycle   7 NSaved=   7.
 NSaved= 7 IEnMin= 7 EnMin= -230.733004524767     IErMin= 7 ErrMin= 4.68D-05
 ErrMax= 4.68D-05  0.00D+00 EMaxC= 1.00D-01 BMatC= 2.54D-08 BMatP= 1.17D-07
 IDIUse=1 WtCom= 1.00D+00 WtEn= 0.00D+00
 Coeff-Com:  0.103D-03-0.129D-02-0.605D-02-0.154D-01 0.217D+00-0.123D+01
 Coeff-Com:  0.204D+01
 Coeff:      0.103D-03-0.129D-02-0.605D-02-0.154D-01 0.217D+00-0.123D+01
 Coeff:      0.204D+01
 Gap=     0.380 Goal=   None    Shift=    0.000
 RMSDP=6.55D-06 MaxDP=1.04D-04 DE=-8.50D-07 OVMax= 5.29D-04

 Initial convergence to 1.0D-05 achieved.  Increase integral accuracy.
 Cycle   8  Pass 1  IDiag  1:
 E= -230.733004771486     Delta-E=       -0.000000246719 Rises=F Damp=F
 DIIS: error= 4.94D-06 at cycle   1 NSaved=   1.
 NSaved= 1 IEnMin= 1 EnMin= -230.733004771486     IErMin= 1 ErrMin= 4.94D-06
 ErrMax= 4.94D-06  0.00D+00 EMaxC= 1.00D-01 BMatC= 5.09D-10 BMatP= 5.09D-10
 IDIUse=1 WtCom= 1.00D+00 WtEn= 0.00D+00
 Coeff-Com:  0.100D+01
 Coeff:      0.100D+01
 Gap=     0.380 Goal=   None    Shift=    0.000
 RMSDP=6.55D-06 MaxDP=1.04D-04 DE=-2.47D-07 OVMax= 2.20D-05

 Cycle   9  Pass 1  IDiag  1:
 RMSU=  1.11D-06    CP:  1.00D+00
 E= -230.733004773533     Delta-E=       -0.000000002047 Rises=F Damp=F
 DIIS: error= 3.19D-06 at cycle   2 NSaved=   2.
 NSaved= 2 IEnMin= 2 EnMin= -230.733004773533     IErMin= 2 ErrMin= 3.19D-06
 ErrMax= 3.19D-06  0.00D+00 EMaxC= 1.00D-01 BMatC= 1.40D-10 BMatP= 5.09D-10
 IDIUse=1 WtCom= 1.00D+00 WtEn= 0.00D+00
 Coeff-Com: -0.549D+00 0.155D+01
 Coeff:     -0.549D+00 0.155D+01
 Gap=     0.380 Goal=   None    Shift=    0.000
 RMSDP=6.28D-07 MaxDP=1.83D-05 DE=-2.05D-09 OVMax= 2.21D-05

 Cycle  10  Pass 1  IDiag  1:
 RMSU=  1.95D-07    CP:  1.00D+00  1.40D+00
 E= -230.733004774475     Delta-E=       -0.000000000942 Rises=F Damp=F
 DIIS: error= 1.53D-06 at cycle   3 NSaved=   3.
 NSaved= 3 IEnMin= 3 EnMin= -230.733004774475     IErMin= 3 ErrMin= 1.53D-06
 ErrMax= 1.53D-06  0.00D+00 EMaxC= 1.00D-01 BMatC= 3.08D-11 BMatP= 1.40D-10
 IDIUse=1 WtCom= 1.00D+00 WtEn= 0.00D+00
 Coeff-Com: -0.250D+00 0.250D+00 0.999D+00
 Coeff:     -0.250D+00 0.250D+00 0.999D+00
 Gap=     0.380 Goal=   None    Shift=    0.000
 RMSDP=1.29D-07 MaxDP=2.53D-06 DE=-9.42D-10 OVMax= 1.02D-05

 Cycle  11  Pass 1  IDiag  1:
 RMSU=  5.91D-08    CP:  1.00D+00  1.46D+00  1.46D+00
 E= -230.733004774663     Delta-E=       -0.000000000188 Rises=F Damp=F
 DIIS: error= 6.75D-07 at cycle   4 NSaved=   4.
 NSaved= 4 IEnMin= 4 EnMin= -230.733004774663     IErMin= 4 ErrMin= 6.75D-07
 ErrMax= 6.75D-07  0.00D+00 EMaxC= 1.00D-01 BMatC= 5.58D-12 BMatP= 3.08D-11
 IDIUse=1 WtCom= 1.00D+00 WtEn= 0.00D+00
 Coeff-Com:  0.218D+00-0.494D+00-0.319D+00 0.160D+01
 Coeff:      0.218D+00-0.494D+00-0.319D+00 0.160D+01
 Gap=     0.380 Goal=   None    Shift=    0.000
 RMSDP=1.06D-07 MaxDP=1.99D-06 DE=-1.88D-10 OVMax= 7.62D-06

 Cycle  12  Pass 1  IDiag  1:
 RMSU=  3.60D-08    CP:  1.00D+00  1.43D+00  1.85D+00  1.79D+00
 E= -230.733004774711     Delta-E=       -0.000000000048 Rises=F Damp=F
 DIIS: error= 9.48D-08 at cycle   5 NSaved=   5.
 NSaved= 5 IEnMin= 5 EnMin= -230.733004774711     IErMin= 5 ErrMin= 9.48D-08
 ErrMax= 9.48D-08  0.00D+00 EMaxC= 1.00D-01 BMatC= 1.91D-13 BMatP= 5.58D-12
 IDIUse=1 WtCom= 1.00D+00 WtEn= 0.00D+00
 Coeff-Com:  0.457D-01-0.907D-01-0.890D-01 0.263D+00 0.871D+00
 Coeff:      0.457D-01-0.907D-01-0.890D-01 0.263D+00 0.871D+00
 Gap=     0.380 Goal=   None    Shift=    0.000
 RMSDP=8.72D-09 MaxDP=1.68D-07 DE=-4.82D-11 OVMax= 5.95D-07

 SCF Done:  E(RHF) =  -230.733004775     A.U. after   12 cycles
            NFock= 12  Conv=0.87D-08     -V/T= 2.0013
 KE= 2.304378450143D+02 PE=-9.434322583642D+02 EE= 2.789040418676D+02
 Leave Link  502 at Wed Feb 12 15:50:36 2025, MaxMem=   104857600 cpu:               8.9 elap:               8.9
 (Enter /sw/cluster/pub/apps//g16/l801.exe)
 ExpMin= 3.60D-02 ExpMax= 4.56D+03 ExpMxC= 6.82D+02 IAcc=3 IRadAn=         5 AccDes= 0.00D+00
 HarFok:  IExCor=  205 AccDes= 0.00D+00 IRadAn=         5 IDoV=-2 UseB2=F ITyADJ=14
 ICtDFT= 12500011 ScaDFX=  1.000000  1.000000  1.000000  1.000000
 Largest valence mixing into a core orbital is  1.44D-04
 Largest core mixing into a valence orbital is  3.71D-05
 Range of M.O.s used for correlation:     7   174
 NBasis=   174 NAE=    21 NBE=    21 NFC=     6 NFV=     0
 NROrb=    168 NOA=    15 NOB=    15 NVA=   153 NVB=   153

 **** Warning!!: The largest alpha MO coefficient is  0.23258034D+03

 Leave Link  801 at Wed Feb 12 15:50:36 2025, MaxMem=   104857600 cpu:               0.2 elap:               0.2
 (Enter /sw/cluster/pub/apps//g16/l906.exe)
 Frozen-core derivative calculation, NFC=   6 NFV=   0.
 FulOut=F Deriv=T AODrv=F NAtomX=    12
   MMem=          34  MDisk=          15 MDiskD=          15
  W3Min=      657720 MinDsk=     1009670 NBas6D=         180
 NBas2D=       16542    NTT=       16290    LW2=     2040000
    MDV=   104496091 MDiskM=        7908 NBas2p=       16452
 Fully direct method using O(ONN) memory.
 IMap=   1   2   3   4   5   6   7   8   9  10  11  12  13  14  15  16  17  18  19  20
 IMap=  21
 JobTyp=1 Pass  1:  I=   7 to  21 NPSUse=  1 ParTrn=F ParDer=F DoDerP=T.
 Spin components of T(2) and E(2):
     alpha-alpha T2 =       0.4262927612D-01 E2=     -0.1081692336D+00
     alpha-beta  T2 =       0.2241513602D+00 E2=     -0.6145486472D+00
     beta-beta   T2 =       0.4262927612D-01 E2=     -0.1081692336D+00
 The integrals were generated   1 times.
 ANorm=    0.1144294504D+01
 E2 =    -0.8308871144D+00 EUMP2 =    -0.23156389188909D+03
 Leave Link  906 at Wed Feb 12 15:50:41 2025, MaxMem=   104857600 cpu:               4.8 elap:               4.8
 (Enter /sw/cluster/pub/apps//g16/l1002.exe)
 Minotr:  Closed shell wavefunction.
          Computing MP2/KS-MP2 derivatives.
          Using Z-Vector for PSCF gradient.
          Skipping F1 and S1 gradient terms here.
          Frozen-core window.
          Direct CPHF calculation.
          Differentiating once with respect to electric field.
                with respect to dipole field.
          Electric field/nuclear overlap derivatives assumed to be zero.
          Requested convergence is 1.0D-10 RMS, and 1.0D-09 maximum.
          NewPWx=F KeepS1=T KeepF1=T KeepIn=T MapXYZ=F SortEE=F KeepMc=T.
 Two-electron integral symmetry not used.
          MDV=     104857600 using IRadAn=       5.
          Solving linear equations separately, MaxMat=     384.
          There are     1 degrees of freedom in the 1st order CPHF.  IDoFFX=0 NUNeed=     1.
 FoFJK:  IHMeth= 1 ICntrl=       0 DoSepK=F KAlg= 0 I1Cent=           0 FoldK=F
 IRaf= 990000000 NMat=       1 IRICut=       1 DoRegI=T DoRafI=F ISym2E= 0 IDoP0=0 IntGTp=1.
 FoFCou: FMM=F IPFlag=           0 FMFlag=      100000 FMFlg1=           0
         NFxFlg=           0 DoJE=F BraDBF=F KetDBF=F FulRan=T
         wScrn=  0.000000 ICntrl=         0 IOpCl=  0 I1Cent=           0 NGrid=           0
         NMat0=    1 NMatS0=      1 NMatT0=    0 NMatD0=    1 NMtDS0=    0 NMtDT0=    0
 Symmetry not used in FoFCou.
 LinEq1:  Iter=  0 NonCon=     1 RMS=3.46D-03 Max=7.28D-02 NDo=     1
 AX will form     1 AO Fock derivatives at one time.
 LinEq1:  Iter=  1 NonCon=     1 RMS=8.66D-04 Max=1.24D-02 NDo=     1
 LinEq1:  Iter=  2 NonCon=     1 RMS=2.84D-04 Max=5.70D-03 NDo=     1
 LinEq1:  Iter=  3 NonCon=     1 RMS=8.34D-05 Max=1.93D-03 NDo=     1
 LinEq1:  Iter=  4 NonCon=     1 RMS=2.19D-05 Max=3.66D-04 NDo=     1
 LinEq1:  Iter=  5 NonCon=     1 RMS=2.90D-06 Max=5.46D-05 NDo=     1
 LinEq1:  Iter=  6 NonCon=     1 RMS=2.62D-07 Max=3.24D-06 NDo=     1
 LinEq1:  Iter=  7 NonCon=     1 RMS=2.72D-08 Max=4.82D-07 NDo=     1
 LinEq1:  Iter=  8 NonCon=     1 RMS=4.47D-09 Max=5.32D-08 NDo=     1
 LinEq1:  Iter=  9 NonCon=     1 RMS=1.31D-09 Max=2.65D-08 NDo=     1
 LinEq1:  Iter= 10 NonCon=     1 RMS=4.19D-10 Max=5.38D-09 NDo=     1
 LinEq1:  Iter= 11 NonCon=     1 RMS=8.28D-11 Max=1.34D-09 NDo=     1
 LinEq1:  Iter= 12 NonCon=     0 RMS=2.84D-11 Max=3.13D-10 NDo=     1
 Linear equations converged to 1.000D-10 1.000D-09 after    12 iterations.
 End of Minotr F.D. properties file   721 does not exist.
 End of Minotr F.D. properties file   722 does not exist.
 End of Minotr F.D. properties file   788 does not exist.
 Leave Link 1002 at Wed Feb 12 15:50:52 2025, MaxMem=   104857600 cpu:              11.7 elap:              11.7
 (Enter /sw/cluster/pub/apps//g16/l601.exe)
 Copying SCF densities to generalized density rwf, IOpCl= 0 IROHF=0.

 **********************************************************************

            Population analysis using the MP2 density.

 **********************************************************************

 Alpha  occ. eigenvalues --  -11.24082 -11.24026 -11.24026 -11.23903 -11.23903
 Alpha  occ. eigenvalues --  -11.23844  -1.15199  -1.01791  -1.01791  -0.82752
 Alpha  occ. eigenvalues --   -0.82751  -0.71799  -0.64145  -0.61609  -0.58979
 Alpha  occ. eigenvalues --   -0.58978  -0.50168  -0.49010  -0.49009  -0.33775
 Alpha  occ. eigenvalues --   -0.33775
 Alpha virt. eigenvalues --    0.04202   0.04891   0.04891   0.06646   0.06646
 Alpha virt. eigenvalues --    0.08833   0.10803   0.10804   0.12921   0.15263
 Alpha virt. eigenvalues --    0.15263   0.15689   0.16206   0.17717   0.17717
 Alpha virt. eigenvalues --    0.18599   0.18599   0.19193   0.20926   0.21302
 Alpha virt. eigenvalues --    0.21302   0.21568   0.21568   0.21806   0.22760
 Alpha virt. eigenvalues --    0.22760   0.25037   0.25037   0.28833   0.28833
 Alpha virt. eigenvalues --    0.30193   0.33247   0.33407   0.36689   0.39151
 Alpha virt. eigenvalues --    0.39151   0.43700   0.43701   0.44106   0.49120
 Alpha virt. eigenvalues --    0.49120   0.51618   0.51619   0.59380   0.63158
 Alpha virt. eigenvalues --    0.70464   0.71483   0.72381   0.72381   0.75265
 Alpha virt. eigenvalues --    0.75265   0.75749   0.75750   0.76147   0.79605
 Alpha virt. eigenvalues --    0.81875   0.81875   0.88529   0.92456   0.92456
 Alpha virt. eigenvalues --    0.95333   0.95333   0.97194   1.01140   1.02044
 Alpha virt. eigenvalues --    1.02044   1.05813   1.05813   1.09254   1.12465
 Alpha virt. eigenvalues --    1.12465   1.13703   1.16600   1.21587   1.21588
 Alpha virt. eigenvalues --    1.24675   1.31917   1.31918   1.39619   1.39620
 Alpha virt. eigenvalues --    1.52936   1.56607   1.66563   1.73620   1.73623
 Alpha virt. eigenvalues --    1.77178   1.81483   1.82843   1.82843   1.87013
 Alpha virt. eigenvalues --    1.87015   1.97837   1.97839   1.99271   2.05382
 Alpha virt. eigenvalues --    2.05383   2.15813   2.15813   2.16933   2.17092
 Alpha virt. eigenvalues --    2.21275   2.21277   2.22995   2.22995   2.30214
 Alpha virt. eigenvalues --    2.36389   2.36389   2.40839   2.40839   2.55252
 Alpha virt. eigenvalues --    2.67719   2.67720   2.74078   2.74610   2.81361
 Alpha virt. eigenvalues --    2.81364   2.89628   2.91890   2.96853   2.96854
 Alpha virt. eigenvalues --    2.99909   2.99910   3.05616   3.09215   3.09215
 Alpha virt. eigenvalues --    3.12814   3.19031   3.19032   3.29458   3.29458
 Alpha virt. eigenvalues --    3.33246   3.33247   3.33496   3.47673   3.53619
 Alpha virt. eigenvalues --    3.74897   3.74898   3.88706   3.91780   3.91782
 Alpha virt. eigenvalues --    4.05525   4.39838   4.39839   4.51401   4.56417
 Alpha virt. eigenvalues --    4.56417   5.26371  24.72719  25.10929  25.10930
 Alpha virt. eigenvalues --   25.29807  25.29809  25.38848
          Condensed to atoms (all electrons):
               1          2          3          4          5          6
     1  C    8.446944  -2.669954   1.879734  -1.669019   1.879862  -1.966115
     2  C   -2.669954   8.446853  -1.965975   1.879734  -1.669024   1.879784
     3  C    1.879734  -1.965975   8.446853  -2.669954   1.879784  -1.669024
     4  C   -1.669019   1.879734  -2.669954   8.446944  -1.966115   1.879862
     5  C    1.879862  -1.669024   1.879784  -1.966115   8.446891  -2.669996
     6  C   -1.966115   1.879784  -1.669024   1.879862  -2.669996   8.446891
     7  H    0.489966  -0.141389   0.029986  -0.006687   0.055466  -0.151111
     8  H   -0.141390   0.489968  -0.151116   0.055463  -0.006682   0.029983
     9  H    0.055463  -0.151116   0.489968  -0.141390   0.029983  -0.006682
    10  H   -0.006687   0.029986  -0.141389   0.489966  -0.151111   0.055466
    11  H    0.029998  -0.006689   0.055474  -0.151145   0.489992  -0.141407
    12  H   -0.151145   0.055474  -0.006689   0.029998  -0.141407   0.489992
               7          8          9         10         11         12
     1  C    0.489966  -0.141390   0.055463  -0.006687   0.029998  -0.151145
     2  C   -0.141389   0.489968  -0.151116   0.029986  -0.006689   0.055474
     3  C    0.029986  -0.151116   0.489968  -0.141389   0.055474  -0.006689
     4  C   -0.006687   0.055463  -0.141390   0.489966  -0.151145   0.029998
     5  C    0.055466  -0.006682   0.029983  -0.151111   0.489992  -0.141407
     6  C   -0.151111   0.029983  -0.006682   0.055466  -0.141407   0.489992
     7  H    0.572591  -0.008619  -0.000639   0.001038  -0.000639  -0.017616
     8  H   -0.008619   0.572604  -0.017617  -0.000639   0.001038  -0.000639
     9  H   -0.000639  -0.017617   0.572604  -0.008619  -0.000639   0.001038
    10  H    0.001038  -0.000639  -0.008619   0.572591  -0.017616  -0.000639
    11  H   -0.000639   0.001038  -0.000639  -0.017616   0.572609  -0.008622
    12  H   -0.017616  -0.000639   0.001038  -0.000639  -0.008622   0.572609
 Mulliken charges:
               1
     1  C   -0.177656
     2  C   -0.177651
     3  C   -0.177651
     4  C   -0.177656
     5  C   -0.177641
     6  C   -0.177641
     7  H    0.177654
     8  H    0.177647
     9  H    0.177647
    10  H    0.177654
    11  H    0.177647
    12  H    0.177647
 Sum of Mulliken charges =  -0.00000
 Mulliken charges with hydrogens summed into heavy atoms:
               1
     1  C   -0.000002
     2  C   -0.000004
     3  C   -0.000004
     4  C   -0.000002
     5  C    0.000005
     6  C    0.000005
 Electronic spatial extent (au):  <R**2>=            461.0470
 Charge=             -0.0000 electrons
 Dipole moment (field-independent basis, Debye):
    X=             -0.0000    Y=             -0.0000    Z=             -0.0000  Tot=              0.0000
 Quadrupole moment (field-independent basis, Debye-Ang):
   XX=            -32.7361   YY=            -32.7367   ZZ=            -40.8428
   XY=              0.0000   XZ=             -0.0000   YZ=              0.0000
 Traceless Quadrupole moment (field-independent basis, Debye-Ang):
   XX=              2.7024   YY=              2.7018   ZZ=             -5.4043
   XY=              0.0000   XZ=             -0.0000   YZ=              0.0000
 Octapole moment (field-independent basis, Debye-Ang**2):
  XXX=             -0.0000  YYY=              4.7785  ZZZ=             -0.0000  XYY=             -0.0000
  XXY=             -4.7791  XXZ=             -0.0000  XZZ=              0.0000  YZZ=             -0.0000
  YYZ=             -0.0000  XYZ=             -0.0000
 Hexadecapole moment (field-independent basis, Debye-Ang**3):
 XXXX=           -282.3505 YYYY=           -282.3435 ZZZZ=            -51.3815 XXXY=              0.0000
 XXXZ=              0.0000 YYYX=              0.0000 YYYZ=             -0.0000 ZZZX=             -0.0000
 ZZZY=             -0.0000 XXYY=            -94.1165 XXZZ=            -66.3551 YYZZ=            -66.3529
 XXYZ=              0.0000 YYXZ=             -0.0000 ZZXY=              0.0000
 N-N= 2.033573667076D+02 E-N=-9.442904094722D+02  KE= 2.314640040708D+02
 No NMR shielding tensors so no spin-rotation constants.
 Leave Link  601 at Wed Feb 12 15:50:52 2025, MaxMem=   104857600 cpu:               0.1 elap:               0.0
 (Enter /sw/cluster/pub/apps//g16/l9999.exe)
 1\1\GINC-N02\SP\RMP2-FC\6-311++G(d,p)\C6H6\UNKNOWN\12-Feb-2025\0\\#P M
 P2/6-311++G** nosymm Density=MP2\\Clamp-10\\0,1\C,0,1.39752911,0.00962
 276,0.\C,0,0.70707905,1.20544285,0.\C,0,-0.70707905,1.20544285,0.\C,0,
 -1.39752911,0.00962276,0.\C,0,-0.69041505,-1.21505833,0.\C,0,0.6904150
 5,-1.21505833,0.\H,0,2.46543419,-0.17870625,0.\H,0,1.07795708,2.224416
 93,0.\H,0,-1.07795708,2.22441693,0.\H,0,-2.46543419,-0.17870625,0.\H,0
 ,-1.3874121,-2.0457544,0.\H,0,1.3874121,-2.0457544,0.\\Version=ES64L-G
 16RevA.03\HF=-230.7330048\MP2=-231.5638919\RMSD=8.720e-09\Dipole=0.,-0
 .000016,0.\Quadrupole=2.0091894,2.0087525,-4.0179419,0.,0.,0.\PG=C02V 
 [SGV(C6H6)]\\@


 I WOULD TAKE COUNSEL OF MYSELF.
 I WOULD STOP AND LOOK WITHIN
 AND LOOKING WITHIN, LOOK BACK, ALSO
 THAT I MAY LOOK AHEAD WITH CLEARER UNDERSTANDING
 OF THE WAY I HAVE BEEN MOVING, AND IN WHAT DIRECTION.
 I NEED TO KNOW IF I AM GOING FORWARD OR RETREATING,
 WHETHER I HAVE BEEN WASTING, OR ENJOYING
 THE PRECIOUS MOMENTS OF LIFE.  THERE HAVE BEEN FRICTIONS,
 ANNOYANCES AND SOMETIMES WRATH,
 BUT WERE THEY BECAUSE I WAS RIGHT AND OTHERS WRONG.....
 HAVE I HAD MY THOUGHTS TOO SHARPLY FOCUSED
 ON THAT WHICH PLEASED ME, SERVED MY SELF-ESTEEM,
 UNDERGIRDED MY SECURITY,
 OF WHICH I DID NOT INQUIRE WHETHER IT SERVED OR HAMPERED OTHERS.....
 HAVE I BEEN TRYING TO STOP THE CLOCK
 TO HOLD THE WORLD
 IN PERPETUATION OF WHAT WAS AN IS ALREADY SLIPPING AWAY.....
 HAVE I BEEN CRITICAL OF OTHERS FOR WHAT REALLY NEEDED CHANGING IN ME...
 LET ME INDEED TAKE COUNSEL OF MYSELF
 AND SET MY DIRECTIONS STRAIGHT.

                          R.T. WESTON AS ADAPTED BY D. OSBORN 1967
 Job cpu time:       0 days  0 hours  0 minutes 26.3 seconds.
 Elapsed time:       0 days  0 hours  0 minutes 26.4 seconds.
 File lengths (MBytes):  RWF=     20 Int=      0 D2E=      0 Chk=      4 Scr=      1
 Normal termination of Gaussian 16 at Wed Feb 12 15:50:52 2025.
