 Entering Gaussian System, Link 0=g09
 Initial command:
 /apps/software//g09/l1.exe /scratch/itamar/2414.cluster.abaxnet/Gau-25835.inp -scrdir=/scratch/itamar/2414.cluster.abaxnet/
 Entering Link 1 = /apps/software//g09/l1.exe PID=     25837.
  
 Copyright (c) 1988,1990,1992,1993,1995,1998,2003,2009, Gaussian, Inc.
                  All Rights Reserved.
  
 This is part of the Gaussian(R) 09 program.  It is based on
 the Gaussian(R) 03 system (copyright 2003, Gaussian, Inc.),
 the Gaussian(R) 98 system (copyright 1998, Gaussian, Inc.),
 the Gaussian(R) 94 system (copyright 1995, Gaussian, Inc.),
 the Gaussian 92(TM) system (copyright 1992, Gaussian, Inc.),
 the Gaussian 90(TM) system (copyright 1990, Gaussian, Inc.),
 the Gaussian 88(TM) system (copyright 1988, Gaussian, Inc.),
 the Gaussian 86(TM) system (copyright 1986, Carnegie Mellon
 University), and the Gaussian 82(TM) system (copyright 1983,
 Carnegie Mellon University). Gaussian is a federally registered
 trademark of Gaussian, Inc.
  
 This software contains proprietary and confidential information,
 including trade secrets, belonging to Gaussian, Inc.
  
 This software is provided under written license and may be
 used, copied, transmitted, or stored only in accord with that
 written license.
  
 The following legend is applicable only to US Government
 contracts under FAR:
  
                    RESTRICTED RIGHTS LEGEND
  
 Use, reproduction and disclosure by the US Government is
 subject to restrictions as set forth in subparagraphs (a)
 and (c) of the Commercial Computer Software - Restricted
 Rights clause in FAR 52.227-19.
  
 Gaussian, Inc.
 340 Quinnipiac St., Bldg. 40, Wallingford CT 06492
  
  
 ---------------------------------------------------------------
 Warning -- This program may not be used in any manner that
 competes with the business of Gaussian, Inc. or will provide
 assistance to any competitor of Gaussian, Inc.  The licensee
 of this program is prohibited from giving any competitor of
 Gaussian, Inc. access to this program.  By using this program,
 the user acknowledges that Gaussian, Inc. is engaged in the
 business of creating and licensing software in the field of
 computational chemistry and represents and warrants to the
 licensee that it is not a competitor of Gaussian, Inc. and that
 it will not use this program in any manner prohibited above.
 ---------------------------------------------------------------
  

 Cite this work as:
 Gaussian 09, Revision A.02,
 M. J. Frisch, G. W. Trucks, H. B. Schlegel, G. E. Scuseria, 
 M. A. Robb, J. R. Cheeseman, G. Scalmani, V. Barone, B. Mennucci, 
 G. A. Petersson, H. Nakatsuji, M. Caricato, X. Li, H. P. Hratchian, 
 A. F. Izmaylov, J. Bloino, G. Zheng, J. L. Sonnenberg, M. Hada, 
 M. Ehara, K. Toyota, R. Fukuda, J. Hasegawa, M. Ishida, T. Nakajima, 
 Y. Honda, O. Kitao, H. Nakai, T. Vreven, J. A. Montgomery, Jr., 
 J. E. Peralta, F. Ogliaro, M. Bearpark, J. J. Heyd, E. Brothers, 
 K. N. Kudin, V. N. Staroverov, R. Kobayashi, J. Normand, 
 K. Raghavachari, A. Rendell, J. C. Burant, S. S. Iyengar, J. Tomasi, 
 M. Cossi, N. Rega, J. M. Millam, M. Klene, J. E. Knox, J. B. Cross, 
 V. Bakken, C. Adamo, J. Jaramillo, R. Gomperts, R. E. Stratmann, 
 O. Yazyev, A. J. Austin, R. Cammi, C. Pomelli, J. W. Ochterski, 
 R. L. Martin, K. Morokuma, V. G. Zakrzewski, G. A. Voth, 
 P. Salvador, J. J. Dannenberg, S. Dapprich, A. D. Daniels, 
 O. Farkas, J. B. Foresman, J. V. Ortiz, J. Cioslowski, 
 and D. J. Fox, Gaussian, Inc., Wallingford CT, 2009.
 
 ******************************************
 Gaussian 09:  EM64L-G09RevA.02 11-Jun-2009
                 3-Dec-2021 
 ******************************************
 %Mem=3800MB
 %NProcShared=6
 Will use up to    6 processors via shared memory.
 %chk=/home/itamar/Aromaticity-test-set/T2-Clamping/10/clamp-10.chk
 -----------------------------
 #P MP2/6-311++G** DENSITY=MP2
 -----------------------------
 1/30=1,38=1/1;
 2/12=2,17=6,18=5,40=1/2;
 3/5=4,6=6,7=1111,11=9,16=1,25=1,30=1,71=1/1,2,3;
 4//1;
 5/5=2,38=5/2;
 8/6=4,10=2/1;
 9/15=1,16=-3/6;
 10/5=1,13=10/2;
 6/7=2,8=2,9=2,10=2,22=2/1;
 99/5=1,9=1/99;
 Leave Link    1 at Fri Dec  3 11:30:00 2021, MaxMem=  498073600 cpu:       0.2
 (Enter /apps/software//g09/l101.exe)
 --------
 Clamp-10
 --------
 Symbolic Z-matrix:
 Charge =  0 Multiplicity = 1
 6                     0.00963   1.39753   0. 
 6                     1.20545   0.70708   0. 
 6                     1.20545  -0.70708   0. 
 6                     0.00963  -1.39753   0. 
 6                    -1.21505  -0.69042   0. 
 6                    -1.21505   0.69042   0. 
 1                    -0.1787    2.46543   0. 
 1                     2.22442   1.07796   0. 
 1                     2.22442  -1.07796   0. 
 1                    -0.1787   -2.46543   0. 
 1                    -2.04575  -1.38741   0. 
 1                    -2.04575   1.38741   0. 
 
 NAtoms=     12 NQM=     12 NQMF=      0 NMic=      0 NMicF=      0 NTot=     12.
                    Isotopes and Nuclear Properties:
 (Nuclear quadrupole moments (NQMom) in fm**2, nuclear magnetic moments (NMagM)
  in nuclear magnetons)

  Atom         1           2           3           4           5           6           7           8           9          10
 IAtWgt=          12          12          12          12          12          12           1           1           1           1
 AtmWgt=  12.0000000  12.0000000  12.0000000  12.0000000  12.0000000  12.0000000   1.0078250   1.0078250   1.0078250   1.0078250
 NucSpn=           0           0           0           0           0           0           1           1           1           1
 AtZEff=   0.0000000   0.0000000   0.0000000   0.0000000   0.0000000   0.0000000   0.0000000   0.0000000   0.0000000   0.0000000
 NQMom=    0.0000000   0.0000000   0.0000000   0.0000000   0.0000000   0.0000000   0.0000000   0.0000000   0.0000000   0.0000000
 NMagM=    0.0000000   0.0000000   0.0000000   0.0000000   0.0000000   0.0000000   2.7928460   2.7928460   2.7928460   2.7928460

  Atom        11          12
 IAtWgt=           1           1
 AtmWgt=   1.0078250   1.0078250
 NucSpn=           1           1
 AtZEff=   0.0000000   0.0000000
 NQMom=    0.0000000   0.0000000
 NMagM=    2.7928460   2.7928460
 Leave Link  101 at Fri Dec  3 11:30:00 2021, MaxMem=  498073600 cpu:       0.3
 (Enter /apps/software//g09/l202.exe)
                          Input orientation:                          
 ---------------------------------------------------------------------
 Center     Atomic      Atomic             Coordinates (Angstroms)
 Number     Number       Type             X           Y           Z
 ---------------------------------------------------------------------
      1          6           0        0.009629    1.397529    0.000000
      2          6           0        1.205449    0.707079    0.000000
      3          6           0        1.205449   -0.707079    0.000000
      4          6           0        0.009629   -1.397529    0.000000
      5          6           0       -1.215052   -0.690415    0.000000
      6          6           0       -1.215052    0.690415    0.000000
      7          1           0       -0.178700    2.465434    0.000000
      8          1           0        2.224423    1.077957    0.000000
      9          1           0        2.224423   -1.077957    0.000000
     10          1           0       -0.178700   -2.465434    0.000000
     11          1           0       -2.045748   -1.387412    0.000000
     12          1           0       -2.045748    1.387412    0.000000
 ---------------------------------------------------------------------
                    Distance matrix (angstroms):
                    1          2          3          4          5
     1  C    0.000000
     2  C    1.380835   0.000000
     3  C    2.420612   1.414158   0.000000
     4  C    2.795058   2.420612   1.380835   0.000000
     5  C    2.420610   2.794962   2.420558   1.414162   0.000000
     6  C    1.414162   2.420558   2.794962   2.420610   1.380830
     7  H    1.084384   2.237785   3.461316   3.867551   3.321657
     8  H    2.237731   1.084370   2.055398   3.321648   3.867445
     9  H    3.321648   2.055398   1.084370   2.237731   3.461239
    10  H    3.867551   3.461316   2.237785   1.084384   2.055412
    11  H    3.461282   3.867451   3.321616   2.055402   1.084371
    12  H    2.055402   3.321616   3.867451   3.461282   2.237727
                    6          7          8          9         10
     6  C    0.000000
     7  H    2.055412   0.000000
     8  H    3.461239   2.774904   0.000000
     9  H    3.867445   4.281427   2.155914   0.000000
    10  H    3.321657   4.930868   4.281427   2.774904   0.000000
    11  H    2.237727   4.281389   4.930761   4.281369   2.155922
    12  H    1.084371   2.155922   4.281369   4.930761   4.281389
                   11         12
    11  H    0.000000
    12  H    2.774824   0.000000
 Stoichiometry    C6H6
 Framework group  C2V[SGV(C6H6)]
 Deg. of freedom    11
 Full point group                 C2V     NOp   4
 Largest Abelian subgroup         C2V     NOp   4
 Largest concise Abelian subgroup C2      NOp   2
                         Standard orientation:                         
 ---------------------------------------------------------------------
 Center     Atomic      Atomic             Coordinates (Angstroms)
 Number     Number       Type             X           Y           Z
 ---------------------------------------------------------------------
      1          6           0        0.000000    1.397529    0.009623
      2          6           0        0.000000    0.707079    1.205443
      3          6           0        0.000000   -0.707079    1.205443
      4          6           0        0.000000   -1.397529    0.009623
      5          6           0        0.000000   -0.690415   -1.215058
      6          6           0        0.000000    0.690415   -1.215058
      7          1           0        0.000000    2.465434   -0.178706
      8          1           0        0.000000    1.077957    2.224417
      9          1           0        0.000000   -1.077957    2.224417
     10          1           0        0.000000   -2.465434   -0.178706
     11          1           0        0.000000   -1.387412   -2.045754
     12          1           0        0.000000    1.387412   -2.045754
 ---------------------------------------------------------------------
 Rotational constants (GHZ):      5.6923063      5.6920207      2.8460818
 Leave Link  202 at Fri Dec  3 11:30:00 2021, MaxMem=  498073600 cpu:       0.0
 (Enter /apps/software//g09/l301.exe)
 Standard basis: 6-311++G(d,p) (5D, 7F)
 Ernie: Thresh=  0.10000D-02 Tol=  0.10000D-05 Strict=F.
 There are    66 symmetry adapted basis functions of A1  symmetry.
 There are    21 symmetry adapted basis functions of A2  symmetry.
 There are    21 symmetry adapted basis functions of B1  symmetry.
 There are    66 symmetry adapted basis functions of B2  symmetry.
 Integral buffers will be    131072 words long.
 Raffenetti 1 integral format.
 Two-electron integral symmetry is turned on.
   174 basis functions,   270 primitive gaussians,   180 cartesian basis functions
    21 alpha electrons       21 beta electrons
       nuclear repulsion energy       203.3573812057 Hartrees.
 IExCor=    0 DFT=F Ex=HF Corr=None ExCW=0 ScaHFX=  1.000000
 ScaDFX=  1.000000  1.000000  1.000000  1.000000 ScalE2=  1.000000  1.000000
 IRadAn=      0 IRanWt=     -1 IRanGd=            0 ICorTp=0
 NAtoms=   12 NActive=   12 NUniq=    6 SFac= 3.00D+00 NAtFMM=   80 NAOKFM=F Big=F
 Leave Link  301 at Fri Dec  3 11:30:00 2021, MaxMem=  498073600 cpu:       0.2
 (Enter /apps/software//g09/l302.exe)
 NPDir=0 NMtPBC=     1 NCelOv=     1 NCel=       1 NClECP=     1 NCelD=      1
         NCelK=      1 NCelE2=     1 NClLst=     1 CellRange=     0.0.
 One-electron integrals computed using PRISM.
 One-electron integral symmetry used in STVInt
 NBasis=   174 RedAO= T  NBF=    66    21    21    66
 NBsUse=   174 1.00D-06 NBFU=    66    21    21    66
 Leave Link  302 at Fri Dec  3 11:30:00 2021, MaxMem=  498073600 cpu:       1.4
 (Enter /apps/software//g09/l303.exe)
 DipDrv:  MaxL=1.
 Leave Link  303 at Fri Dec  3 11:30:00 2021, MaxMem=  498073600 cpu:       0.2
 (Enter /apps/software//g09/l401.exe)
 Harris functional with IExCor=  205 diagonalized for initial guess.
 ExpMin= 3.60D-02 ExpMax= 4.56D+03 ExpMxC= 6.82D+02 IAcc=3 IRadAn=         0 AccDes= 0.00D+00
 HarFok:  IExCor=  205 AccDes= 0.00D+00 IRadAn=         0 IDoV= 1
 ScaDFX=  1.000000  1.000000  1.000000  1.000000
 FoFCou: FMM=F IPFlag=           0 FMFlag=      100000 FMFlg1=           0
         NFxFlg=           0 DoJE=T BraDBF=F KetDBF=T FulRan=T
         Omega=  0.000000  0.000000  1.000000  0.000000  0.000000 ICntrl=     500 IOpCl=  0
         NMat0=    1 NMatS0=    1 NMatT0=    0 NMatD0=    1 NMtDS0=    0 NMtDT0=    0
         I1Cent=           4 NGrid=           0.
 Petite list used in FoFCou.
 Harris En= -231.130869257995    
 Initial guess orbital symmetries:
       Occupied  (A1) (A1) (B2) (B2) (A1) (B2) (A1) (B2) (A1) (A1)
                 (B2) (A1) (A1) (B2) (B2) (A1) (B1) (A1) (B2) (A2)
                 (B1)
       Virtual   (B1) (A2) (A1) (A2) (A1) (B2) (A1) (B2) (A1) (B1)
                 (B2) (A1) (A1) (B2) (B1) (A2) (A1) (A1) (B2) (A1)
                 (B2) (A1) (B2) (B1) (A2) (B2) (A1) (B2) (A2) (A1)
                 (B2) (A1) (A1) (B2) (A1) (B2) (B2) (B2) (A1) (B2)
                 (B2) (A1) (B2) (A1) (B2) (B2) (A1) (B1) (A1) (B2)
                 (A1) (B2) (A1) (B1) (A2) (A2) (B1) (A2) (B2) (A1)
                 (A1) (B2) (A1) (B2) (B2) (B2) (A1) (A1) (B2) (B1)
                 (B2) (A1) (B2) (B1) (A2) (B1) (B2) (A1) (B1) (A2)
                 (A1) (B2) (A1) (B2) (A1) (A1) (A2) (B1) (A2) (B2)
                 (A1) (A1) (B2) (B1) (A2) (B1) (B2) (A1) (B1) (A2)
                 (A1) (B2) (B2) (A1) (B2) (A1) (B2) (B1) (A2) (A2)
                 (B2) (A1) (A1) (A2) (A1) (B2) (B2) (B1) (A1) (B2)
                 (A1) (A1) (B2) (A2) (B1) (A2) (B1) (B2) (B2) (A1)
                 (A1) (B2) (A1) (B2) (A2) (B2) (A1) (A1) (B2) (A1)
                 (B2) (A1) (B2) (B2) (A1) (B2) (B2) (A1) (A1) (B2)
                 (A1) (B2) (B2)
 The electronic state of the initial guess is 1-A1.
 Leave Link  401 at Fri Dec  3 11:30:01 2021, MaxMem=  498073600 cpu:       2.2
 (Enter /apps/software//g09/l502.exe)
 Closed shell SCF:
 Requested convergence on RMS density matrix=1.00D-08 within 128 cycles.
 Requested convergence on MAX density matrix=1.00D-06.
 Requested convergence on             energy=1.00D-06.
 No special actions if energy rises.
 Using DIIS extrapolation, IDIIS=  1040.
 Integral symmetry usage will be decided dynamically.
 Keep R1 ints in memory in canonical form, NReq=135773131.
 IEnd=      118142 IEndB=      118142 NGot=   498073600 MDV=   365314456
 LenX=   365314456 LenY=   365281615
 Symmetry not used in FoFDir.
 MinBra= 0 MaxBra= 2 Meth= 1.
 IRaf=       0 NMat=   1 IRICut=       1 DoRegI=T DoRafI=F ISym2E= 0 JSym2E=0.

 Cycle   1  Pass 1  IDiag  1:
 E= -230.431583310817    
 DIIS: error= 6.99D-02 at cycle   1 NSaved=   1.
 NSaved= 1 IEnMin= 1 EnMin= -230.431583310817     IErMin= 1 ErrMin= 6.99D-02
 ErrMax= 6.99D-02 EMaxC= 1.00D-01 BMatC= 5.15D-01 BMatP= 5.15D-01
 IDIUse=3 WtCom= 3.01D-01 WtEn= 6.99D-01
 Coeff-Com:  0.100D+01
 Coeff-En:   0.100D+01
 Coeff:      0.100D+01
 Gap=     0.341 Goal=   None    Shift=    0.000
 GapD=    0.341 DampG=1.000 DampE=0.500 DampFc=0.5000 IDamp=-1.
 Damping current iteration by 5.00D-01
 RMSDP=9.41D-03 MaxDP=2.66D-01              OVMax= 1.59D-01

 Cycle   2  Pass 1  IDiag  1:
 E= -230.590031123376     Delta-E=       -0.158447812559 Rises=F Damp=T
 DIIS: error= 3.18D-02 at cycle   2 NSaved=   2.
 NSaved= 2 IEnMin= 2 EnMin= -230.590031123376     IErMin= 2 ErrMin= 3.18D-02
 ErrMax= 3.18D-02 EMaxC= 1.00D-01 BMatC= 1.11D-01 BMatP= 5.15D-01
 IDIUse=3 WtCom= 6.82D-01 WtEn= 3.18D-01
 Coeff-Com: -0.686D+00 0.169D+01
 Coeff-En:   0.000D+00 0.100D+01
 Coeff:     -0.468D+00 0.147D+01
 Gap=     0.389 Goal=   None    Shift=    0.000
 RMSDP=5.19D-03 MaxDP=1.74D-01 DE=-1.58D-01 OVMax= 4.90D-02

 Cycle   3  Pass 1  IDiag  1:
 E= -230.731800365217     Delta-E=       -0.141769241841 Rises=F Damp=F
 DIIS: error= 5.06D-03 at cycle   3 NSaved=   3.
 NSaved= 3 IEnMin= 3 EnMin= -230.731800365217     IErMin= 3 ErrMin= 5.06D-03
 ErrMax= 5.06D-03 EMaxC= 1.00D-01 BMatC= 1.18D-03 BMatP= 1.11D-01
 IDIUse=3 WtCom= 9.49D-01 WtEn= 5.06D-02
 Coeff-Com: -0.916D-01 0.145D+00 0.946D+00
 Coeff-En:   0.000D+00 0.000D+00 0.100D+01
 Coeff:     -0.870D-01 0.138D+00 0.949D+00
 Gap=     0.380 Goal=   None    Shift=    0.000
 RMSDP=1.02D-03 MaxDP=3.18D-02 DE=-1.42D-01 OVMax= 8.69D-03

 Cycle   4  Pass 1  IDiag  1:
 E= -230.732946259295     Delta-E=       -0.001145894078 Rises=F Damp=F
 DIIS: error= 1.09D-03 at cycle   4 NSaved=   4.
 NSaved= 4 IEnMin= 4 EnMin= -230.732946259295     IErMin= 4 ErrMin= 1.09D-03
 ErrMax= 1.09D-03 EMaxC= 1.00D-01 BMatC= 2.69D-05 BMatP= 1.18D-03
 IDIUse=3 WtCom= 9.89D-01 WtEn= 1.09D-02
 Coeff-Com:  0.914D-02-0.215D-01-0.129D-01 0.103D+01
 Coeff-En:   0.000D+00 0.000D+00 0.000D+00 0.100D+01
 Coeff:      0.904D-02-0.213D-01-0.128D-01 0.103D+01
 Gap=     0.380 Goal=   None    Shift=    0.000
 RMSDP=2.18D-04 MaxDP=6.97D-03 DE=-1.15D-03 OVMax= 1.91D-03

 Cycle   5  Pass 1  IDiag  1:
 E= -230.732997096840     Delta-E=       -0.000050837545 Rises=F Damp=F
 DIIS: error= 2.37D-04 at cycle   5 NSaved=   5.
 NSaved= 5 IEnMin= 5 EnMin= -230.732997096840     IErMin= 5 ErrMin= 2.37D-04
 ErrMax= 2.37D-04 EMaxC= 1.00D-01 BMatC= 2.13D-06 BMatP= 2.69D-05
 IDIUse=3 WtCom= 9.98D-01 WtEn= 2.37D-03
 Coeff-Com:  0.308D-02-0.401D-02-0.436D-01-0.203D+00 0.125D+01
 Coeff-En:   0.000D+00 0.000D+00 0.000D+00 0.000D+00 0.100D+01
 Coeff:      0.307D-02-0.400D-02-0.435D-01-0.203D+00 0.125D+01
 Gap=     0.380 Goal=   None    Shift=    0.000
 RMSDP=4.89D-05 MaxDP=1.33D-03 DE=-5.08D-05 OVMax= 1.11D-03

 Cycle   6  Pass 1  IDiag  1:
 E= -230.733003684893     Delta-E=       -0.000006588052 Rises=F Damp=F
 DIIS: error= 9.76D-05 at cycle   6 NSaved=   6.
 NSaved= 6 IEnMin= 6 EnMin= -230.733003684893     IErMin= 6 ErrMin= 9.76D-05
 ErrMax= 9.76D-05 EMaxC= 1.00D-01 BMatC= 1.15D-07 BMatP= 2.13D-06
 IDIUse=1 WtCom= 1.00D+00 WtEn= 0.00D+00
 Coeff-Com: -0.138D-02 0.192D-02 0.194D-01 0.737D-01-0.559D+00 0.146D+01
 Coeff:     -0.138D-02 0.192D-02 0.194D-01 0.737D-01-0.559D+00 0.146D+01
 Gap=     0.380 Goal=   None    Shift=    0.000
 RMSDP=1.52D-05 MaxDP=3.80D-04 DE=-6.59D-06 OVMax= 6.60D-04

 Cycle   7  Pass 1  IDiag  1:
 E= -230.733004554744     Delta-E=       -0.000000869851 Rises=F Damp=F
 DIIS: error= 4.54D-05 at cycle   7 NSaved=   7.
 NSaved= 7 IEnMin= 7 EnMin= -230.733004554744     IErMin= 7 ErrMin= 4.54D-05
 ErrMax= 4.54D-05 EMaxC= 1.00D-01 BMatC= 2.38D-08 BMatP= 1.15D-07
 IDIUse=1 WtCom= 1.00D+00 WtEn= 0.00D+00
 Coeff-Com:  0.496D-03-0.704D-03-0.822D-02-0.251D-01 0.238D+00-0.120D+01
 Coeff-Com:  0.199D+01
 Coeff:      0.496D-03-0.704D-03-0.822D-02-0.251D-01 0.238D+00-0.120D+01
 Coeff:      0.199D+01
 Gap=     0.380 Goal=   None    Shift=    0.000
 RMSDP=6.31D-06 MaxDP=9.88D-05 DE=-8.70D-07 OVMax= 5.20D-04

 Cycle   8  Pass 1  IDiag  1:
 E= -230.733004787419     Delta-E=       -0.000000232675 Rises=F Damp=F
 DIIS: error= 4.10D-06 at cycle   8 NSaved=   8.
 NSaved= 8 IEnMin= 8 EnMin= -230.733004787419     IErMin= 8 ErrMin= 4.10D-06
 ErrMax= 4.10D-06 EMaxC= 1.00D-01 BMatC= 3.96D-10 BMatP= 2.38D-08
 IDIUse=1 WtCom= 1.00D+00 WtEn= 0.00D+00
 Coeff-Com: -0.802D-04 0.114D-03 0.158D-02 0.429D-02-0.447D-01 0.289D+00
 Coeff-Com: -0.606D+00 0.136D+01
 Coeff:     -0.802D-04 0.114D-03 0.158D-02 0.429D-02-0.447D-01 0.289D+00
 Coeff:     -0.606D+00 0.136D+01
 Gap=     0.380 Goal=   None    Shift=    0.000
 RMSDP=1.96D-06 MaxDP=5.85D-05 DE=-2.33D-07 OVMax= 5.14D-05

 Cycle   9  Pass 1  IDiag  1:
 E= -230.733004789778     Delta-E=       -0.000000002360 Rises=F Damp=F
 DIIS: error= 2.16D-07 at cycle   9 NSaved=   9.
 NSaved= 9 IEnMin= 9 EnMin= -230.733004789778     IErMin= 9 ErrMin= 2.16D-07
 ErrMax= 2.16D-07 EMaxC= 1.00D-01 BMatC= 5.01D-12 BMatP= 3.96D-10
 IDIUse=1 WtCom= 1.00D+00 WtEn= 0.00D+00
 Coeff-Com: -0.738D-05 0.114D-04 0.991D-04 0.327D-03-0.318D-02 0.154D-01
 Coeff-Com: -0.210D-01-0.205D-01 0.103D+01
 Coeff:     -0.738D-05 0.114D-04 0.991D-04 0.327D-03-0.318D-02 0.154D-01
 Coeff:     -0.210D-01-0.205D-01 0.103D+01
 Gap=     0.380 Goal=   None    Shift=    0.000
 RMSDP=9.53D-08 MaxDP=1.74D-06 DE=-2.36D-09 OVMax= 9.38D-07

 Cycle  10  Pass 1  IDiag  1:
 E= -230.733004789788     Delta-E=       -0.000000000010 Rises=F Damp=F
 DIIS: error= 8.96D-08 at cycle  10 NSaved=  10.
 NSaved=10 IEnMin=10 EnMin= -230.733004789788     IErMin=10 ErrMin= 8.96D-08
 ErrMax= 8.96D-08 EMaxC= 1.00D-01 BMatC= 7.70D-13 BMatP= 5.01D-12
 IDIUse=1 WtCom= 1.00D+00 WtEn= 0.00D+00
 Coeff-Com:  0.377D-05-0.503D-05-0.874D-04-0.226D-03 0.238D-02-0.164D-01
 Coeff-Com:  0.365D-01-0.965D-01 0.221D+00 0.853D+00
 Coeff:      0.377D-05-0.503D-05-0.874D-04-0.226D-03 0.238D-02-0.164D-01
 Coeff:      0.365D-01-0.965D-01 0.221D+00 0.853D+00
 Gap=     0.380 Goal=   None    Shift=    0.000
 RMSDP=2.52D-08 MaxDP=5.33D-07 DE=-9.89D-12 OVMax= 2.86D-07

 Cycle  11  Pass 1  IDiag  1:
 E= -230.733004789790     Delta-E=       -0.000000000001 Rises=F Damp=F
 DIIS: error= 2.51D-08 at cycle  11 NSaved=  11.
 NSaved=11 IEnMin=11 EnMin= -230.733004789790     IErMin=11 ErrMin= 2.51D-08
 ErrMax= 2.51D-08 EMaxC= 1.00D-01 BMatC= 3.69D-14 BMatP= 7.70D-13
 IDIUse=1 WtCom= 1.00D+00 WtEn= 0.00D+00
 Coeff-Com:  0.761D-06-0.115D-05-0.117D-04-0.371D-04 0.368D-03-0.200D-02
 Coeff-Com:  0.324D-02-0.337D-02-0.662D-01 0.319D-01 0.104D+01
 Coeff:      0.761D-06-0.115D-05-0.117D-04-0.371D-04 0.368D-03-0.200D-02
 Coeff:      0.324D-02-0.337D-02-0.662D-01 0.319D-01 0.104D+01
 Gap=     0.380 Goal=   None    Shift=    0.000
 RMSDP=1.48D-08 MaxDP=4.34D-07 DE=-1.48D-12 OVMax= 1.42D-07

 Cycle  12  Pass 1  IDiag  1:
 E= -230.733004789790     Delta-E=        0.000000000000 Rises=F Damp=F
 DIIS: error= 6.45D-09 at cycle  12 NSaved=  12.
 NSaved=12 IEnMin=12 EnMin= -230.733004789790     IErMin=12 ErrMin= 6.45D-09
 ErrMax= 6.45D-09 EMaxC= 1.00D-01 BMatC= 1.73D-15 BMatP= 3.69D-14
 IDIUse=1 WtCom= 1.00D+00 WtEn= 0.00D+00
 Coeff-Com: -0.239D-06 0.311D-06 0.586D-05 0.151D-04-0.160D-03 0.107D-02
 Coeff-Com: -0.221D-02 0.541D-02-0.335D-02-0.510D-01-0.136D+00 0.119D+01
 Coeff:     -0.239D-06 0.311D-06 0.586D-05 0.151D-04-0.160D-03 0.107D-02
 Coeff:     -0.221D-02 0.541D-02-0.335D-02-0.510D-01-0.136D+00 0.119D+01
 Gap=     0.380 Goal=   None    Shift=    0.000
 RMSDP=4.64D-09 MaxDP=1.24D-07 DE=-2.27D-13 OVMax= 3.74D-08

 SCF Done:  E(RHF) =  -230.733004790     A.U. after   12 cycles
             Convg  =    0.4636D-08             -V/T =  2.0013
 KE= 2.304378477176D+02 PE=-9.434322884975D+02 EE= 2.789040547844D+02
 Leave Link  502 at Fri Dec  3 11:30:06 2021, MaxMem=  498073600 cpu:      34.5
 (Enter /apps/software//g09/l801.exe)
 ExpMin= 3.60D-02 ExpMax= 4.56D+03 ExpMxC= 6.82D+02 IAcc=3 IRadAn=         5 AccDes= 0.00D+00
 HarFok:  IExCor=  205 AccDes= 0.00D+00 IRadAn=         5 IDoV=-2
 ScaDFX=  1.000000  1.000000  1.000000  1.000000
 Largest valence mixing into a core orbital is  1.52D-04
 Largest core mixing into a valence orbital is  3.96D-05
 Range of M.O.s used for correlation:     7   174
 NBasis=   174 NAE=    21 NBE=    21 NFC=     6 NFV=     0
 NROrb=    168 NOA=    15 NOB=    15 NVA=   153 NVB=   153

 **** Warning!!: The largest alpha MO coefficient is  0.23258032D+03

 Leave Link  801 at Fri Dec  3 11:30:07 2021, MaxMem=  498073600 cpu:       1.2
 (Enter /apps/software//g09/l906.exe)
 Frozen-core derivative calculation, NFC=   6 NFV=   0.
 FulOut=F Deriv=T AODrv=F NAtomX=    12
   MMem=         328  MDisk=          15 MDiskD=          15
  W3Min=      657720 MinDsk=     1009670 NBas6D=         180
 NBas2D=       16542    NTT=       16290    LW2=     2040000
    MDV=   497687922 MDiskM=       38247 NBas2p=        8392
 Fully in-core method, ICMem=   280919484.
 IMap=   1   2   3   4   5   6   7   8   9  10  11  12  13  14  15  16  17  18  19  20
 IMap=  21
 JobTyp=1 Pass  1 fully in-core, NPsUse=  6.
 Compute canonical integrals, IntTyp=   4.
 Symmetry not used in FoFDir.
 MinBra= 0 MaxBra= 2 Meth= 1.
 IRaf=       0 NMat=   1 IRICut=       1 DoRegI=T DoRafI=F ISym2E= 0 JSym2E=0.
 Spin components of T(2) and E(2):
     alpha-alpha T2 =       0.4262927019D-01 E2=     -0.1081692299D+00
     alpha-beta  T2 =       0.2241513288D+00 E2=     -0.6145486253D+00
     beta-beta   T2 =       0.4262927019D-01 E2=     -0.1081692299D+00
 The integrals were generated   1 times.
 ANorm=    0.1144294485D+01
 E2 =    -0.8308870851D+00 EUMP2 =    -0.23156389187488D+03
 Leave Link  906 at Fri Dec  3 11:30:53 2021, MaxMem=  498073600 cpu:     276.2
 (Enter /apps/software//g09/l1002.exe)
 Minotr:  Closed shell wavefunction.
          Computing MP2/KS-MP2 derivatives.
          Using Z-Vector for PSCF gradient.
          Skipping F1 and S1 gradient terms here.
          Frozen-core window.
          Direct CPHF calculation.
          Differentiating once with respect to electric field.
                with respect to dipole field.
          Electric field/nuclear overlap derivatives assumed to be zero.
          Using symmetry in CPHF.
          Requested convergence is 1.0D-10 RMS, and 1.0D-09 maximum.
          NewPWx=F KeepS1=T KeepF1=T KeepIn=T MapXYZ=F SortEE=F KeepMc=T.
          MDV=     498073500 using IRadAn=       0.
          Keep R1 ints in memory in canonical form, NReq=133512102.
 Symmetry not used in FoFDir.
 MinBra= 0 MaxBra= 2 Meth= 1.
 IRaf=       0 NMat=   1 IRICut=       1 DoRegI=T DoRafI=F ISym2E= 0 JSym2E=0.
          Solving linear equations separately, MaxMat=       0.
          There are     1 degrees of freedom in the 1st order CPHF.  IDoFFX=0.
 LinEq1:  Iter=  0 NonCon=     1 RMS=3.46D-03 Max=7.28D-02
 AX will form     1 AO Fock derivatives at one time.
 LinEq1:  Iter=  1 NonCon=     1 RMS=8.66D-04 Max=1.24D-02
 LinEq1:  Iter=  2 NonCon=     1 RMS=2.84D-04 Max=5.70D-03
 LinEq1:  Iter=  3 NonCon=     1 RMS=8.34D-05 Max=1.93D-03
 LinEq1:  Iter=  4 NonCon=     1 RMS=2.19D-05 Max=3.66D-04
 LinEq1:  Iter=  5 NonCon=     1 RMS=2.90D-06 Max=5.46D-05
 LinEq1:  Iter=  6 NonCon=     1 RMS=2.62D-07 Max=3.24D-06
 LinEq1:  Iter=  7 NonCon=     1 RMS=2.72D-08 Max=4.82D-07
 LinEq1:  Iter=  8 NonCon=     1 RMS=4.48D-09 Max=5.41D-08
 LinEq1:  Iter=  9 NonCon=     1 RMS=1.33D-09 Max=2.70D-08
 LinEq1:  Iter= 10 NonCon=     1 RMS=4.21D-10 Max=5.35D-09
 LinEq1:  Iter= 11 NonCon=     1 RMS=8.30D-11 Max=1.34D-09
 LinEq1:  Iter= 12 NonCon=     0 RMS=2.84D-11 Max=3.13D-10
 Linear equations converged to 1.000D-10 1.000D-09 after    12 iterations.
 End of Minotr Frequency-dependent properties file   721 does not exist.
 End of Minotr Frequency-dependent properties file   722 does not exist.
 Leave Link 1002 at Fri Dec  3 11:30:59 2021, MaxMem=  498073600 cpu:      36.3
 (Enter /apps/software//g09/l601.exe)
 Copying SCF densities to generalized density rwf, IOpCl= 0 IROHF=0.

 **********************************************************************

            Population analysis using the MP2 density.

 **********************************************************************

 Orbital symmetries:
       Occupied  (A1) (B2) (A1) (A1) (B2) (B2) (A1) (B2) (A1) (A1)
                 (B2) (A1) (B2) (A1) (B2) (A1) (B1) (A1) (B2) (A2)
                 (B1)
       Virtual   (A1) (B2) (A1) (A1) (B2) (B2) (B1) (A2) (B1) (A2)
                 (B1) (A1) (A1) (B2) (A1) (B2) (A1) (A1) (A2) (A1)
                 (B2) (B1) (A2) (B2) (B2) (A1) (A1) (B2) (A1) (B2)
                 (B2) (A1) (B2) (A2) (B2) (A1) (A1) (B2) (B2) (A1)
                 (B2) (A1) (B2) (A1) (A1) (B2) (B1) (B2) (A1) (A1)
                 (B2) (B1) (A2) (B2) (A1) (B1) (A2) (A2) (B2) (A1)
                 (B2) (A1) (A1) (B2) (A1) (B2) (B2) (A1) (B2) (A1)
                 (B2) (B2) (B1) (A1) (B2) (B1) (A2) (B1) (B1) (A2)
                 (B2) (A1) (A1) (B2) (A1) (A1) (A2) (A2) (B1) (B2)
                 (A1) (A1) (B2) (B1) (A2) (B1) (A1) (B2) (A1) (B2)
                 (B1) (A2) (B2) (A1) (B2) (A1) (B2) (B1) (A2) (A2)
                 (B2) (A1) (A1) (A2) (A1) (B2) (B2) (A1) (A1) (B2)
                 (B2) (A1) (B1) (B2) (A1) (B2) (B1) (A2) (A2) (B1)
                 (A1) (B2) (B2) (A2) (A1) (B2) (A1) (A1) (B2) (A1)
                 (B2) (A1) (B2) (B2) (A1) (B2) (B2) (A1) (A1) (B2)
                 (A1) (B2) (B2)
 The electronic state is 1-A1.
 Alpha  occ. eigenvalues --  -11.24082 -11.24026 -11.24026 -11.23903 -11.23903
 Alpha  occ. eigenvalues --  -11.23844  -1.15199  -1.01791  -1.01791  -0.82752
 Alpha  occ. eigenvalues --   -0.82752  -0.71799  -0.64145  -0.61609  -0.58979
 Alpha  occ. eigenvalues --   -0.58978  -0.50168  -0.49010  -0.49009  -0.33775
 Alpha  occ. eigenvalues --   -0.33775
 Alpha virt. eigenvalues --    0.04202   0.04891   0.04891   0.06646   0.06646
 Alpha virt. eigenvalues --    0.08833   0.10803   0.10804   0.12921   0.15263
 Alpha virt. eigenvalues --    0.15263   0.15689   0.16206   0.17717   0.17717
 Alpha virt. eigenvalues --    0.18599   0.18599   0.19193   0.20926   0.21302
 Alpha virt. eigenvalues --    0.21302   0.21568   0.21568   0.21806   0.22760
 Alpha virt. eigenvalues --    0.22760   0.25037   0.25037   0.28833   0.28833
 Alpha virt. eigenvalues --    0.30193   0.33247   0.33408   0.36689   0.39151
 Alpha virt. eigenvalues --    0.39151   0.43700   0.43701   0.44106   0.49120
 Alpha virt. eigenvalues --    0.49120   0.51618   0.51619   0.59380   0.63158
 Alpha virt. eigenvalues --    0.70464   0.71483   0.72381   0.72381   0.75265
 Alpha virt. eigenvalues --    0.75265   0.75749   0.75750   0.76147   0.79605
 Alpha virt. eigenvalues --    0.81875   0.81875   0.88529   0.92456   0.92456
 Alpha virt. eigenvalues --    0.95333   0.95333   0.97194   1.01140   1.02044
 Alpha virt. eigenvalues --    1.02044   1.05813   1.05813   1.09254   1.12465
 Alpha virt. eigenvalues --    1.12465   1.13703   1.16600   1.21587   1.21588
 Alpha virt. eigenvalues --    1.24675   1.31917   1.31918   1.39619   1.39620
 Alpha virt. eigenvalues --    1.52936   1.56607   1.66563   1.73620   1.73623
 Alpha virt. eigenvalues --    1.77178   1.81483   1.82843   1.82843   1.87013
 Alpha virt. eigenvalues --    1.87015   1.97837   1.97839   1.99271   2.05382
 Alpha virt. eigenvalues --    2.05383   2.15813   2.15813   2.16933   2.17092
 Alpha virt. eigenvalues --    2.21275   2.21277   2.22995   2.22995   2.30214
 Alpha virt. eigenvalues --    2.36389   2.36389   2.40839   2.40839   2.55252
 Alpha virt. eigenvalues --    2.67719   2.67720   2.74078   2.74610   2.81361
 Alpha virt. eigenvalues --    2.81364   2.89628   2.91890   2.96853   2.96854
 Alpha virt. eigenvalues --    2.99909   2.99910   3.05616   3.09215   3.09215
 Alpha virt. eigenvalues --    3.12814   3.19031   3.19032   3.29458   3.29458
 Alpha virt. eigenvalues --    3.33246   3.33247   3.33496   3.47673   3.53620
 Alpha virt. eigenvalues --    3.74897   3.74898   3.88706   3.91780   3.91782
 Alpha virt. eigenvalues --    4.05525   4.39838   4.39839   4.51401   4.56417
 Alpha virt. eigenvalues --    4.56417   5.26371  24.72719  25.10929  25.10930
 Alpha virt. eigenvalues --   25.29807  25.29809  25.38848
          Condensed to atoms (all electrons):
              1          2          3          4          5          6
     1  C    8.446938  -2.669948   1.879728  -1.669014   1.879856  -1.966109
     2  C   -2.669948   8.446847  -1.965970   1.879728  -1.669019   1.879778
     3  C    1.879728  -1.965970   8.446847  -2.669948   1.879778  -1.669019
     4  C   -1.669014   1.879728  -2.669948   8.446938  -1.966109   1.879856
     5  C    1.879856  -1.669019   1.879778  -1.966109   8.446884  -2.669990
     6  C   -1.966109   1.879778  -1.669019   1.879856  -2.669990   8.446884
     7  H    0.489966  -0.141389   0.029986  -0.006687   0.055466  -0.151111
     8  H   -0.141390   0.489968  -0.151116   0.055463  -0.006682   0.029982
     9  H    0.055463  -0.151116   0.489968  -0.141390   0.029982  -0.006682
    10  H   -0.006687   0.029986  -0.141389   0.489966  -0.151111   0.055466
    11  H    0.029998  -0.006689   0.055474  -0.151145   0.489992  -0.141407
    12  H   -0.151145   0.055474  -0.006689   0.029998  -0.141407   0.489992
              7          8          9         10         11         12
     1  C    0.489966  -0.141390   0.055463  -0.006687   0.029998  -0.151145
     2  C   -0.141389   0.489968  -0.151116   0.029986  -0.006689   0.055474
     3  C    0.029986  -0.151116   0.489968  -0.141389   0.055474  -0.006689
     4  C   -0.006687   0.055463  -0.141390   0.489966  -0.151145   0.029998
     5  C    0.055466  -0.006682   0.029982  -0.151111   0.489992  -0.141407
     6  C   -0.151111   0.029982  -0.006682   0.055466  -0.141407   0.489992
     7  H    0.572591  -0.008619  -0.000639   0.001038  -0.000639  -0.017616
     8  H   -0.008619   0.572604  -0.017617  -0.000639   0.001038  -0.000639
     9  H   -0.000639  -0.017617   0.572604  -0.008619  -0.000639   0.001038
    10  H    0.001038  -0.000639  -0.008619   0.572591  -0.017616  -0.000639
    11  H   -0.000639   0.001038  -0.000639  -0.017616   0.572609  -0.008622
    12  H   -0.017616  -0.000639   0.001038  -0.000639  -0.008622   0.572609
 Mulliken atomic charges:
              1
     1  C   -0.177656
     2  C   -0.177651
     3  C   -0.177651
     4  C   -0.177656
     5  C   -0.177641
     6  C   -0.177641
     7  H    0.177654
     8  H    0.177647
     9  H    0.177647
    10  H    0.177654
    11  H    0.177647
    12  H    0.177647
 Sum of Mulliken atomic charges =   0.00000
 Mulliken charges with hydrogens summed into heavy atoms:
              1
     1  C   -0.000002
     2  C   -0.000004
     3  C   -0.000004
     4  C   -0.000002
     5  C    0.000006
     6  C    0.000006
 Sum of Mulliken charges with hydrogens summed into heavy atoms =   0.00000
 Electronic spatial extent (au):  <R**2>=            461.0469
 Charge=              0.0000 electrons
 Dipole moment (field-independent basis, Debye):
    X=              0.0000    Y=              0.0000    Z=              0.0000  Tot=              0.0000
 Quadrupole moment (field-independent basis, Debye-Ang):
   XX=            -40.8428   YY=            -32.7361   ZZ=            -32.7367
   XY=              0.0000   XZ=              0.0000   YZ=              0.0000
 Traceless Quadrupole moment (field-independent basis, Debye-Ang):
   XX=             -5.4043   YY=              2.7024   ZZ=              2.7018
   XY=              0.0000   XZ=              0.0000   YZ=              0.0000
 Octapole moment (field-independent basis, Debye-Ang**2):
  XXX=              0.0000  YYY=              0.0000  ZZZ=              4.7784  XYY=              0.0000
  XXY=              0.0000  XXZ=              0.0000  XZZ=              0.0000  YZZ=              0.0000
  YYZ=             -4.7790  XYZ=              0.0000
 Hexadecapole moment (field-independent basis, Debye-Ang**3):
 XXXX=            -51.3815 YYYY=           -282.3504 ZZZZ=           -282.3435 XXXY=              0.0000
 XXXZ=              0.0000 YYYX=              0.0000 YYYZ=              0.0000 ZZZX=              0.0000
 ZZZY=              0.0000 XXYY=            -66.3551 XXZZ=            -66.3529 YYZZ=            -94.1165
 XXYZ=              0.0000 YYXZ=              0.0000 ZZXY=              0.0000
 N-N= 2.033573812057D+02 E-N=-9.442904410360D+02  KE= 2.314640065830D+02
 Symmetry A1   KE= 1.149569022894D+02
 Symmetry A2   KE= 2.330879243466D+00
 Symmetry B1   KE= 4.064060031000D+00
 Symmetry B2   KE= 1.101121650191D+02
 No NMR shielding tensors so no spin-rotation constants.
 Leave Link  601 at Fri Dec  3 11:30:59 2021, MaxMem=  498073600 cpu:       2.0
 (Enter /apps/software//g09/l9999.exe)
 1\1\GINC-DLT06\SP\RMP2-FC\6-311++G(d,p)\C6H6\ITAMAR\03-Dec-2021\0\\#P 
 MP2/6-311++G** DENSITY=MP2\\Clamp-10\\0,1\C,0,0.009629,1.397529,0.\C,0
 ,1.205449,0.707079,0.\C,0,1.205449,-0.707079,0.\C,0,0.009629,-1.397529
 ,0.\C,0,-1.215052,-0.690415,0.\C,0,-1.215052,0.690415,0.\H,0,-0.1787,2
 .465434,0.\H,0,2.224423,1.077957,0.\H,0,2.224423,-1.077957,0.\H,0,-0.1
 787,-2.465434,0.\H,0,-2.045748,-1.387412,0.\H,0,-2.045748,1.387412,0.\
 \Version=EM64L-G09RevA.02\State=1-A1\HF=-230.7330048\MP2=-231.5638919\
 RMSD=4.636e-09\Dipole=-0.0000167,0.,0.\Quadrupole=2.0087514,2.0091878,
 -4.0179392,0.,0.,0.\PG=C02V [SGV(C6H6)]\\@


 GOOD SENSE ABOUT TRIVIALITIES IS BETTER THAN NONSENSE
 ABOUT THINGS THAT MATTER

                                       -- MAX BEERBOHM
 Job cpu time:  0 days  0 hours  5 minutes 55.6 seconds.
 File lengths (MBytes):  RWF=     14 Int=      0 D2E=      0 Chk=      4 Scr=      1
 Normal termination of Gaussian 09 at Fri Dec  3 11:30:59 2021.
