X=OH                                                                    
SP        RMP2-FC                                                     6-311++G(d,p)       
Number of atoms                            I               13
Info1-9                                    I   N=           9
          24          22           0           0           0         110
           1           2           1
Charge                                     I                0
Multiplicity                               I                1
Number of electrons                        I               50
Number of alpha electrons                  I               25
Number of beta electrons                   I               25
Number of basis functions                  I              196
Number of independent functions            I              196
Number of point charges in /Mol/           I                0
Number of translation vectors              I                0
Atomic numbers                             I   N=          13
           6           6           6           6           6           6
           1           1           1           1           1           8
           1
Nuclear charges                            R   N=          13
  6.00000000E+00  6.00000000E+00  6.00000000E+00  6.00000000E+00  6.00000000E+00
  6.00000000E+00  1.00000000E+00  1.00000000E+00  1.00000000E+00  1.00000000E+00
  1.00000000E+00  8.00000000E+00  1.00000000E+00
Current cartesian coordinates              R   N=          39
 -2.27511121E+00  4.38287961E-01  0.00000000E+00 -2.24478678E+00 -2.19609987E+00
  0.00000000E+00  3.83028590E-02 -3.50592008E+00  0.00000000E+00  2.30232138E+00
 -2.15217886E+00  0.00000000E+00  2.29690164E+00  4.76350825E-01  0.00000000E+00
  8.04945468E-17  1.77341538E+00  0.00000000E+00  5.60020339E-02 -5.55306040E+00
  0.00000000E+00  4.09180132E+00 -3.15037377E+00  0.00000000E+00  4.04129839E+00
  1.54778208E+00  0.00000000E+00 -4.06042242E+00  1.45164226E+00  0.00000000E+00
 -4.01960244E+00 -3.21989491E+00  0.00000000E+00  9.70336575E-02  4.36029550E+00
  0.00000000E+00 -1.59110216E+00  5.03841616E+00  0.00000000E+00
Force Field                                I                0
Int Atom Types                             I   N=          13
           0           0           0           0           0           0
           0           0           0           0           0           0
           0
MM charges                                 R   N=          13
  0.00000000E+00  0.00000000E+00  0.00000000E+00  0.00000000E+00  0.00000000E+00
  0.00000000E+00  0.00000000E+00  0.00000000E+00  0.00000000E+00  0.00000000E+00
  0.00000000E+00  0.00000000E+00  0.00000000E+00
Integer atomic weights                     I   N=          13
          12          12          12          12          12          12
           1           1           1           1           1          16
           1
Real atomic weights                        R   N=          13
  1.20000000E+01  1.20000000E+01  1.20000000E+01  1.20000000E+01  1.20000000E+01
  1.20000000E+01  1.00782504E+00  1.00782504E+00  1.00782504E+00  1.00782504E+00
  1.00782504E+00  1.59949146E+01  1.00782504E+00
Atom fragment info                         I   N=          13
           0           0           0           0           0           0
           0           0           0           0           0           0
           0
Atom residue num                           I   N=          13
           0           0           0           0           0           0
           0           0           0           0           0           0
           0
Nuclear spins                              I   N=          13
           0           0           0           0           0           0
           1           1           1           1           1           0
           1
Nuclear ZEff                               R   N=          13
 -3.60000000E+00 -3.60000000E+00 -3.60000000E+00 -3.60000000E+00 -3.60000000E+00
 -3.60000000E+00 -1.00000000E+00 -1.00000000E+00 -1.00000000E+00 -1.00000000E+00
 -1.00000000E+00 -5.60000000E+00 -1.00000000E+00
Nuclear QMom                               R   N=          13
  0.00000000E+00  0.00000000E+00  0.00000000E+00  0.00000000E+00  0.00000000E+00
  0.00000000E+00  0.00000000E+00  0.00000000E+00  0.00000000E+00  0.00000000E+00
  0.00000000E+00  0.00000000E+00  0.00000000E+00
Nuclear GFac                               R   N=          13
  0.00000000E+00  0.00000000E+00  0.00000000E+00  0.00000000E+00  0.00000000E+00
  0.00000000E+00  2.79284600E+00  2.79284600E+00  2.79284600E+00  2.79284600E+00
  2.79284600E+00  0.00000000E+00  2.79284600E+00
MicOpt                                     I   N=          13
          -1          -1          -1          -1          -1          -1
          -1          -1          -1          -1          -1          -1
          -1
Number of contracted shells                I               72
Number of primitive shells                 I              133
Pure/Cartesian d shells                    I                0
Pure/Cartesian f shells                    I                0
Highest angular momentum                   I                2
Largest degree of contraction              I                6
Shell types                                I   N=          72
           0          -1          -1          -1          -1          -2
           0          -1          -1          -1          -1          -2
           0          -1          -1          -1          -1          -2
           0          -1          -1          -1          -1          -2
           0          -1          -1          -1          -1          -2
           0          -1          -1          -1          -1          -2
           0           0           0           0           1           0
           0           0           0           1           0           0
           0           0           1           0           0           0
           0           1           0           0           0           0
           1           0          -1          -1          -1          -1
          -2           0           0           0           0           1
Number of primitives per shell             I   N=          72
           6           3           1           1           1           1
           6           3           1           1           1           1
           6           3           1           1           1           1
           6           3           1           1           1           1
           6           3           1           1           1           1
           6           3           1           1           1           1
           3           1           1           1           1           3
           1           1           1           1           3           1
           1           1           1           3           1           1
           1           1           3           1           1           1
           1           6           3           1           1           1
           1           3           1           1           1           1
Shell to atom map                          I   N=          72
           1           1           1           1           1           1
           2           2           2           2           2           2
           3           3           3           3           3           3
           4           4           4           4           4           4
           5           5           5           5           5           5
           6           6           6           6           6           6
           7           7           7           7           7           8
           8           8           8           8           9           9
           9           9           9          10          10          10
          10          10          11          11          11          11
          11          12          12          12          12          12
          12          13          13          13          13          13
Primitive exponents                        R   N=         133
  4.56324000E+03  6.82024000E+02  1.54973000E+02  4.44553000E+01  1.30290000E+01
  1.82773000E+00  2.09642000E+01  4.80331000E+00  1.45933000E+00  4.83456000E-01
  1.45585000E-01  4.38000000E-02  6.26000000E-01  4.56324000E+03  6.82024000E+02
  1.54973000E+02  4.44553000E+01  1.30290000E+01  1.82773000E+00  2.09642000E+01
  4.80331000E+00  1.45933000E+00  4.83456000E-01  1.45585000E-01  4.38000000E-02
  6.26000000E-01  4.56324000E+03  6.82024000E+02  1.54973000E+02  4.44553000E+01
  1.30290000E+01  1.82773000E+00  2.09642000E+01  4.80331000E+00  1.45933000E+00
  4.83456000E-01  1.45585000E-01  4.38000000E-02  6.26000000E-01  4.56324000E+03
  6.82024000E+02  1.54973000E+02  4.44553000E+01  1.30290000E+01  1.82773000E+00
  2.09642000E+01  4.80331000E+00  1.45933000E+00  4.83456000E-01  1.45585000E-01
  4.38000000E-02  6.26000000E-01  4.56324000E+03  6.82024000E+02  1.54973000E+02
  4.44553000E+01  1.30290000E+01  1.82773000E+00  2.09642000E+01  4.80331000E+00
  1.45933000E+00  4.83456000E-01  1.45585000E-01  4.38000000E-02  6.26000000E-01
  4.56324000E+03  6.82024000E+02  1.54973000E+02  4.44553000E+01  1.30290000E+01
  1.82773000E+00  2.09642000E+01  4.80331000E+00  1.45933000E+00  4.83456000E-01
  1.45585000E-01  4.38000000E-02  6.26000000E-01  3.38650000E+01  5.09479000E+00
  1.15879000E+00  3.25840000E-01  1.02741000E-01  3.60000000E-02  7.50000000E-01
  3.38650000E+01  5.09479000E+00  1.15879000E+00  3.25840000E-01  1.02741000E-01
  3.60000000E-02  7.50000000E-01  3.38650000E+01  5.09479000E+00  1.15879000E+00
  3.25840000E-01  1.02741000E-01  3.60000000E-02  7.50000000E-01  3.38650000E+01
  5.09479000E+00  1.15879000E+00  3.25840000E-01  1.02741000E-01  3.60000000E-02
  7.50000000E-01  3.38650000E+01  5.09479000E+00  1.15879000E+00  3.25840000E-01
  1.02741000E-01  3.60000000E-02  7.50000000E-01  8.58850000E+03  1.29723000E+03
  2.99296000E+02  8.73771000E+01  2.56789000E+01  3.74004000E+00  4.21175000E+01
  9.62837000E+00  2.85332000E+00  9.05661000E-01  2.55611000E-01  8.45000000E-02
  1.29200000E+00  3.38650000E+01  5.09479000E+00  1.15879000E+00  3.25840000E-01
  1.02741000E-01  3.60000000E-02  7.50000000E-01
Contraction coefficients                   R   N=         133
  1.96665025E-03  1.52306019E-02  7.61269097E-02  2.60801033E-01  6.16462078E-01
  2.21006028E-01  1.14660081E-01  9.19999648E-01 -3.03068213E-03  1.00000000E+00
  1.00000000E+00  1.00000000E+00  1.00000000E+00  1.96665025E-03  1.52306019E-02
  7.61269097E-02  2.60801033E-01  6.16462078E-01  2.21006028E-01  1.14660081E-01
  9.19999648E-01 -3.03068213E-03  1.00000000E+00  1.00000000E+00  1.00000000E+00
  1.00000000E+00  1.96665025E-03  1.52306019E-02  7.61269097E-02  2.60801033E-01
  6.16462078E-01  2.21006028E-01  1.14660081E-01  9.19999648E-01 -3.03068213E-03
  1.00000000E+00  1.00000000E+00  1.00000000E+00  1.00000000E+00  1.96665025E-03
  1.52306019E-02  7.61269097E-02  2.60801033E-01  6.16462078E-01  2.21006028E-01
  1.14660081E-01  9.19999648E-01 -3.03068213E-03  1.00000000E+00  1.00000000E+00
  1.00000000E+00  1.00000000E+00  1.96665025E-03  1.52306019E-02  7.61269097E-02
  2.60801033E-01  6.16462078E-01  2.21006028E-01  1.14660081E-01  9.19999648E-01
 -3.03068213E-03  1.00000000E+00  1.00000000E+00  1.00000000E+00  1.00000000E+00
  1.96665025E-03  1.52306019E-02  7.61269097E-02  2.60801033E-01  6.16462078E-01
  2.21006028E-01  1.14660081E-01  9.19999648E-01 -3.03068213E-03  1.00000000E+00
  1.00000000E+00  1.00000000E+00  1.00000000E+00  2.54938145E-02  1.90373109E-01
  8.52161486E-01  1.00000000E+00  1.00000000E+00  1.00000000E+00  1.00000000E+00
  2.54938145E-02  1.90373109E-01  8.52161486E-01  1.00000000E+00  1.00000000E+00
  1.00000000E+00  1.00000000E+00  2.54938145E-02  1.90373109E-01  8.52161486E-01
  1.00000000E+00  1.00000000E+00  1.00000000E+00  1.00000000E+00  2.54938145E-02
  1.90373109E-01  8.52161486E-01  1.00000000E+00  1.00000000E+00  1.00000000E+00
  1.00000000E+00  2.54938145E-02  1.90373109E-01  8.52161486E-01  1.00000000E+00
  1.00000000E+00  1.00000000E+00  1.00000000E+00  1.89515008E-03  1.43859006E-02
  7.07320031E-02  2.40001011E-01  5.94797026E-01  2.80802012E-01  1.13889012E-01
  9.20811101E-01 -3.27447036E-03  1.00000000E+00  1.00000000E+00  1.00000000E+00
  1.00000000E+00  2.54938145E-02  1.90373109E-01  8.52161486E-01  1.00000000E+00
  1.00000000E+00  1.00000000E+00  1.00000000E+00
P(S=P) Contraction coefficients            R   N=         133
  0.00000000E+00  0.00000000E+00  0.00000000E+00  0.00000000E+00  0.00000000E+00
  0.00000000E+00  4.02486927E-02  2.37593957E-01  8.15853851E-01  1.00000000E+00
  1.00000000E+00  1.00000000E+00  0.00000000E+00  0.00000000E+00  0.00000000E+00
  0.00000000E+00  0.00000000E+00  0.00000000E+00  0.00000000E+00  4.02486927E-02
  2.37593957E-01  8.15853851E-01  1.00000000E+00  1.00000000E+00  1.00000000E+00
  0.00000000E+00  0.00000000E+00  0.00000000E+00  0.00000000E+00  0.00000000E+00
  0.00000000E+00  0.00000000E+00  4.02486927E-02  2.37593957E-01  8.15853851E-01
  1.00000000E+00  1.00000000E+00  1.00000000E+00  0.00000000E+00  0.00000000E+00
  0.00000000E+00  0.00000000E+00  0.00000000E+00  0.00000000E+00  0.00000000E+00
  4.02486927E-02  2.37593957E-01  8.15853851E-01  1.00000000E+00  1.00000000E+00
  1.00000000E+00  0.00000000E+00  0.00000000E+00  0.00000000E+00  0.00000000E+00
  0.00000000E+00  0.00000000E+00  0.00000000E+00  4.02486927E-02  2.37593957E-01
  8.15853851E-01  1.00000000E+00  1.00000000E+00  1.00000000E+00  0.00000000E+00
  0.00000000E+00  0.00000000E+00  0.00000000E+00  0.00000000E+00  0.00000000E+00
  0.00000000E+00  4.02486927E-02  2.37593957E-01  8.15853851E-01  1.00000000E+00
  1.00000000E+00  1.00000000E+00  0.00000000E+00  0.00000000E+00  0.00000000E+00
  0.00000000E+00  0.00000000E+00  0.00000000E+00  0.00000000E+00  0.00000000E+00
  0.00000000E+00  0.00000000E+00  0.00000000E+00  0.00000000E+00  0.00000000E+00
  0.00000000E+00  0.00000000E+00  0.00000000E+00  0.00000000E+00  0.00000000E+00
  0.00000000E+00  0.00000000E+00  0.00000000E+00  0.00000000E+00  0.00000000E+00
  0.00000000E+00  0.00000000E+00  0.00000000E+00  0.00000000E+00  0.00000000E+00
  0.00000000E+00  0.00000000E+00  0.00000000E+00  0.00000000E+00  0.00000000E+00
  0.00000000E+00  0.00000000E+00  0.00000000E+00  0.00000000E+00  0.00000000E+00
  0.00000000E+00  0.00000000E+00  0.00000000E+00  0.00000000E+00  3.65113974E-02
  2.37152983E-01  8.19701941E-01  1.00000000E+00  1.00000000E+00  1.00000000E+00
  0.00000000E+00  0.00000000E+00  0.00000000E+00  0.00000000E+00  0.00000000E+00
  0.00000000E+00  0.00000000E+00  0.00000000E+00
Coordinates of each shell                  R   N=         216
 -2.27511138E+00  4.38288101E-01  0.00000000E+00 -2.27511138E+00  4.38288101E-01
  0.00000000E+00 -2.27511138E+00  4.38288101E-01  0.00000000E+00 -2.27511138E+00
  4.38288101E-01  0.00000000E+00 -2.27511138E+00  4.38288101E-01  0.00000000E+00
 -2.27511138E+00  4.38288101E-01  0.00000000E+00 -2.24478728E+00 -2.19609974E+00
  0.00000000E+00 -2.24478728E+00 -2.19609974E+00  0.00000000E+00 -2.24478728E+00
 -2.19609974E+00  0.00000000E+00 -2.24478728E+00 -2.19609974E+00  0.00000000E+00
 -2.24478728E+00 -2.19609974E+00  0.00000000E+00 -2.24478728E+00 -2.19609974E+00
  0.00000000E+00  3.83021839E-02 -3.50592023E+00  0.00000000E+00  3.83021839E-02
 -3.50592023E+00  0.00000000E+00  3.83021839E-02 -3.50592023E+00  0.00000000E+00
  3.83021839E-02 -3.50592023E+00  0.00000000E+00  3.83021839E-02 -3.50592023E+00
  0.00000000E+00  3.83021839E-02 -3.50592023E+00  0.00000000E+00  2.30232088E+00
 -2.15217930E+00  0.00000000E+00  2.30232088E+00 -2.15217930E+00  0.00000000E+00
  2.30232088E+00 -2.15217930E+00  0.00000000E+00  2.30232088E+00 -2.15217930E+00
  0.00000000E+00  2.30232088E+00 -2.15217930E+00  0.00000000E+00  2.30232088E+00
 -2.15217930E+00  0.00000000E+00  2.29690148E+00  4.76350380E-01  0.00000000E+00
  2.29690148E+00  4.76350380E-01  0.00000000E+00  2.29690148E+00  4.76350380E-01
  0.00000000E+00  2.29690148E+00  4.76350380E-01  0.00000000E+00  2.29690148E+00
  4.76350380E-01  0.00000000E+00  2.29690148E+00  4.76350380E-01  0.00000000E+00
 -4.69419102E-23  1.77341523E+00  0.00000000E+00 -4.69419102E-23  1.77341523E+00
  0.00000000E+00 -4.69419102E-23  1.77341523E+00  0.00000000E+00 -4.69419102E-23
  1.77341523E+00  0.00000000E+00 -4.69419102E-23  1.77341523E+00  0.00000000E+00
 -4.69419102E-23  1.77341523E+00  0.00000000E+00  5.60010971E-02 -5.55306056E+00
  0.00000000E+00  5.60010971E-02 -5.55306056E+00  0.00000000E+00  5.60010971E-02
 -5.55306056E+00  0.00000000E+00  5.60010971E-02 -5.55306056E+00  0.00000000E+00
  5.60010971E-02 -5.55306056E+00  0.00000000E+00  4.09180069E+00 -3.15037445E+00
  0.00000000E+00  4.09180069E+00 -3.15037445E+00  0.00000000E+00  4.09180069E+00
 -3.15037445E+00  0.00000000E+00  4.09180069E+00 -3.15037445E+00  0.00000000E+00
  4.09180069E+00 -3.15037445E+00  0.00000000E+00  4.04129836E+00  1.54778141E+00
  0.00000000E+00  4.04129836E+00  1.54778141E+00  0.00000000E+00  4.04129836E+00
  1.54778141E+00  0.00000000E+00  4.04129836E+00  1.54778141E+00  0.00000000E+00
  4.04129836E+00  1.54778141E+00  0.00000000E+00 -4.06042246E+00  1.45164263E+00
  0.00000000E+00 -4.06042246E+00  1.45164263E+00  0.00000000E+00 -4.06042246E+00
  1.45164263E+00  0.00000000E+00 -4.06042246E+00  1.45164263E+00  0.00000000E+00
 -4.06042246E+00  1.45164263E+00  0.00000000E+00 -4.01960308E+00 -3.21989455E+00
  0.00000000E+00 -4.01960308E+00 -3.21989455E+00  0.00000000E+00 -4.01960308E+00
 -3.21989455E+00  0.00000000E+00 -4.01960308E+00 -3.21989455E+00  0.00000000E+00
 -4.01960308E+00 -3.21989455E+00  0.00000000E+00  9.70339883E-02  4.36029533E+00
  0.00000000E+00  9.70339883E-02  4.36029533E+00  0.00000000E+00  9.70339883E-02
  4.36029533E+00  0.00000000E+00  9.70339883E-02  4.36029533E+00  0.00000000E+00
  9.70339883E-02  4.36029533E+00  0.00000000E+00  9.70339883E-02  4.36029533E+00
  0.00000000E+00 -1.59110174E+00  5.03841621E+00  0.00000000E+00 -1.59110174E+00
  5.03841621E+00  0.00000000E+00 -1.59110174E+00  5.03841621E+00  0.00000000E+00
 -1.59110174E+00  5.03841621E+00  0.00000000E+00 -1.59110174E+00  5.03841621E+00
  0.00000000E+00
Constraint Structure                       R   N=          39
 -2.27511138E+00  4.38288101E-01  0.00000000E+00 -2.24478728E+00 -2.19609974E+00
  0.00000000E+00  3.83021839E-02 -3.50592023E+00  0.00000000E+00  2.30232088E+00
 -2.15217930E+00  0.00000000E+00  2.29690148E+00  4.76350380E-01  0.00000000E+00
 -4.69419102E-23  1.77341523E+00  0.00000000E+00  5.60010971E-02 -5.55306056E+00
  0.00000000E+00  4.09180069E+00 -3.15037445E+00  0.00000000E+00  4.04129836E+00
  1.54778141E+00  0.00000000E+00 -4.06042246E+00  1.45164263E+00  0.00000000E+00
 -4.01960308E+00 -3.21989455E+00  0.00000000E+00  9.70339883E-02  4.36029533E+00
  0.00000000E+00 -1.59110174E+00  5.03841621E+00  0.00000000E+00
Num ILSW                                   I              100
ILSW                                       I   N=         100
           0           0           0           0           2           0
           0           0           0           0           0          -1
           0           0           0           0           0           0
           0           0           0           0           0           0
           1           0           0           0           0           0
           0           0      100000           0          -1           0
           0           0           0           0           0           0
           0           0           0           1           0           0
           0           0           1           0           0           0
           0           0           4          40           0           0
           0           0           0           0           0           0
           0           0           0           0           0           0
           0           0           0           0           0           0
           0           0           0           0           0           0
           0           0           0           0           0           0
           0           0           0           0           0           0
           0           0           0           0
Num RLSW                                   I               40
RLSW                                       R   N=          40
  1.00000000E+00  1.00000000E+00  1.00000000E+00  1.00000000E+00  1.00000000E+00
  0.00000000E+00  0.00000000E+00  1.00000000E+00  0.00000000E+00  0.00000000E+00
  0.00000000E+00  0.00000000E+00  1.00000000E+00  0.00000000E+00  0.00000000E+00
  0.00000000E+00  0.00000000E+00  1.00000000E+00  0.00000000E+00  0.00000000E+00
  0.00000000E+00  0.00000000E+00  1.00000000E+00  0.00000000E+00  0.00000000E+00
  0.00000000E+00  0.00000000E+00  1.00000000E+00  0.00000000E+00  0.00000000E+00
  0.00000000E+00  0.00000000E+00  0.00000000E+00  0.00000000E+00  0.00000000E+00
  0.00000000E+00  0.00000000E+00  0.00000000E+00  1.00000000E+00  1.00000000E+00
MxBond                                     I                3
NBond                                      I   N=          13
           3           3           3           3           3           3
           1           1           1           1           1           2
           1
IBond                                      I   N=          39
           2           6          10           1           3          11
           2           4           7           3           5           8
           4           6           9           1           5          12
           3           0           0           4           0           0
           5           0           0           1           0           0
           2           0           0           6          13           0
          12           0           0
RBond                                      R   N=          39
  1.50000000E+00  1.50000000E+00  1.00000000E+00  1.50000000E+00  1.50000000E+00
  1.00000000E+00  1.50000000E+00  1.50000000E+00  1.00000000E+00  1.50000000E+00
  1.50000000E+00  1.00000000E+00  1.50000000E+00  1.50000000E+00  1.00000000E+00
  1.50000000E+00  1.50000000E+00  1.50000000E+00  1.00000000E+00  0.00000000E+00
  0.00000000E+00  1.00000000E+00  0.00000000E+00  0.00000000E+00  1.00000000E+00
  0.00000000E+00  0.00000000E+00  1.00000000E+00  0.00000000E+00  0.00000000E+00
  1.00000000E+00  0.00000000E+00  0.00000000E+00  1.50000000E+00  1.00000000E+00
  0.00000000E+00  1.00000000E+00  0.00000000E+00  0.00000000E+00
Virial Ratio                               R      2.001229327214605E+00
SCF Energy                                 R     -3.056384023743024E+02
MP2 Energy                                 R     -3.066660620781723E+02
Total Energy                               R     -3.066660620781723E+02
Post-SCF wavefunction norm                 R      1.163760228770372E+00
RMS Density                                R      8.017880098341909E-09
External E-field                           R   N=          35
  0.00000000E+00  0.00000000E+00  0.00000000E+00  0.00000000E+00  0.00000000E+00
  0.00000000E+00  0.00000000E+00  0.00000000E+00  0.00000000E+00  0.00000000E+00
  0.00000000E+00  0.00000000E+00  0.00000000E+00  0.00000000E+00  0.00000000E+00
  0.00000000E+00  0.00000000E+00  0.00000000E+00  0.00000000E+00  0.00000000E+00
  0.00000000E+00  0.00000000E+00  0.00000000E+00  0.00000000E+00  0.00000000E+00
  0.00000000E+00  0.00000000E+00  0.00000000E+00  0.00000000E+00  0.00000000E+00
  0.00000000E+00  0.00000000E+00  0.00000000E+00  0.00000000E+00  0.00000000E+00
IOpCl                                      I                0
IROHF                                      I                0
Alpha Orbital Energies                     R   N=         196
 -2.05921058E+01 -1.13085312E+01 -1.12468534E+01 -1.12445929E+01 -1.12391405E+01
 -1.12326049E+01 -1.12318236E+01 -1.40803494E+00 -1.15157632E+00 -1.02403284E+00
 -1.00913152E+00 -8.50287356E-01 -8.26824155E-01 -7.37604095E-01 -6.88441675E-01
 -6.55116790E-01 -6.13751695E-01 -5.94957090E-01 -5.90932864E-01 -5.70705610E-01
 -5.20295922E-01 -4.97278374E-01 -4.84981873E-01 -3.44863998E-01 -3.18030746E-01
  3.82777547E-02  4.58893146E-02  5.13372929E-02  6.48101558E-02  7.05270151E-02
  8.93459934E-02  1.04426019E-01  1.18041708E-01  1.32673584E-01  1.33004126E-01
  1.50402273E-01  1.55955635E-01  1.56896046E-01  1.70657993E-01  1.77699399E-01
  1.81105553E-01  1.81906194E-01  1.93948685E-01  2.05140820E-01  2.06026690E-01
  2.08739652E-01  2.12219318E-01  2.14128810E-01  2.15260224E-01  2.27422848E-01
  2.38047994E-01  2.42519692E-01  2.55130355E-01  2.85836324E-01  2.90024576E-01
  2.98172085E-01  3.19576134E-01  3.30447956E-01  3.32590976E-01  3.33897786E-01
  3.83251444E-01  3.86241658E-01  4.04265609E-01  4.10617485E-01  4.30105858E-01
  4.33545352E-01  4.48466960E-01  4.57424916E-01  4.78281334E-01  5.02507900E-01
  5.23503661E-01  5.38928734E-01  5.65254467E-01  6.43462099E-01  6.55772278E-01
  7.08654234E-01  7.21241177E-01  7.24143288E-01  7.41126912E-01  7.53257652E-01
  7.53315328E-01  7.58313279E-01  7.59219254E-01  7.99297819E-01  8.14163141E-01
  8.14937155E-01  8.18999187E-01  8.85092670E-01  9.14786155E-01  9.41789255E-01
  9.48327969E-01  9.67060457E-01  9.85131848E-01  1.00101003E+00  1.03438389E+00
  1.04510818E+00  1.06790430E+00  1.07425575E+00  1.11140478E+00  1.11730788E+00
  1.13267482E+00  1.13759789E+00  1.19843867E+00  1.21454532E+00  1.22310051E+00
  1.23701690E+00  1.31463460E+00  1.31866266E+00  1.35500341E+00  1.37145493E+00
  1.37974193E+00  1.46323373E+00  1.48106893E+00  1.50587520E+00  1.59392915E+00
  1.65749567E+00  1.72622382E+00  1.76998347E+00  1.78966310E+00  1.82998941E+00
  1.83089120E+00  1.83568371E+00  1.85739346E+00  1.88362362E+00  1.91146044E+00
  1.92507220E+00  1.95692951E+00  2.01147123E+00  2.01231104E+00  2.04958155E+00
  2.08542241E+00  2.10859291E+00  2.18692816E+00  2.22036008E+00  2.22210947E+00
  2.23146089E+00  2.24706379E+00  2.25587174E+00  2.26847149E+00  2.32217088E+00
  2.32931672E+00  2.37315392E+00  2.38901203E+00  2.41520956E+00  2.58090413E+00
  2.64802819E+00  2.64869340E+00  2.74848487E+00  2.78136474E+00  2.78525722E+00
  2.83958713E+00  2.90217482E+00  2.96260840E+00  2.97971512E+00  3.01209908E+00
  3.02162104E+00  3.03220627E+00  3.03900023E+00  3.04711728E+00  3.07631694E+00
  3.14090469E+00  3.17151025E+00  3.18295087E+00  3.20511077E+00  3.27241266E+00
  3.28605989E+00  3.31567890E+00  3.47274922E+00  3.48349042E+00  3.50489775E+00
  3.56762418E+00  3.57563137E+00  3.74750984E+00  3.78938073E+00  3.84565836E+00
  3.90862295E+00  3.92087699E+00  4.01620512E+00  4.08027373E+00  4.32010774E+00
  4.40519783E+00  4.45147573E+00  4.55072561E+00  4.56953922E+00  4.59590661E+00
  5.27463151E+00  5.55339154E+00  6.00273037E+00  6.32502691E+00  2.47373800E+01
  2.50910069E+01  2.51292241E+01  2.52344732E+01  2.52608780E+01  2.53595412E+01
  5.16418783E+01
Alpha MO coefficients                      R   N=       38416
  1.36992200E-06 -2.62380131E-07 -1.66507878E-05 -1.10048796E-05  0.00000000E+00
 -3.36425062E-05  1.08399898E-04  5.50632240E-05  0.00000000E+00  1.47343189E-03
  8.48260381E-04 -5.17561243E-04  0.00000000E+00  6.60559433E-03  1.49155826E-03
 -2.34091665E-03  0.00000000E+00 -1.49912760E-05  0.00000000E+00  0.00000000E+00
  1.47302434E-05  5.16897914E-05  4.30306027E-07 -3.23901598E-06  1.69807930E-06
  2.83307423E-06  0.00000000E+00  3.88883709E-05 -1.04875948E-05 -4.11693388E-06
  0.00000000E+00 -1.09714685E-03 -4.98807825E-04 -3.69274957E-04  0.00000000E+00
 -9.86837524E-03 -1.72821699E-03 -1.52540786E-03  0.00000000E+00  4.06402659E-06
  0.00000000E+00  0.00000000E+00 -5.21370955E-06  8.49183484E-06 -2.22733479E-07
  1.11307140E-06  2.55443179E-06 -1.10778547E-06  0.00000000E+00 -2.37940322E-05
 -1.40825261E-05  1.22952541E-05  0.00000000E+00  6.60421605E-04 -6.37835617E-05
  4.86587088E-04  0.00000000E+00  1.06174602E-02  6.13110849E-04  2.31097207E-03
  0.00000000E+00 -4.10088428E-06  0.00000000E+00  0.00000000E+00  9.21001076E-06
 -4.30167180E-06 -3.41719101E-08 -9.35419275E-07 -9.16172957E-07  1.99678503E-06
  0.00000000E+00  1.82789849E-05  7.96732015E-06 -1.27531689E-05  0.00000000E+00
 -1.07522200E-03  2.79932666E-04 -4.39507657E-04  0.00000000E+00 -1.08317411E-02
  3.02630455E-03 -6.21301015E-04  0.00000000E+00  2.42211378E-06  0.00000000E+00
  0.00000000E+00  4.02920138E-06 -9.64983007E-06  8.26654167E-07 -2.94684611E-07
  1.33730564E-05 -1.00095439E-05  0.00000000E+00 -1.28203756E-05 -7.48320265E-05
  2.81273619E-05  0.00000000E+00  6.55827424E-04 -4.14872875E-04 -8.87798078E-04
  0.00000000E+00  1.75358101E-02 -4.35929850E-03  4.31509754E-04  0.00000000E+00
 -8.72818924E-06  0.00000000E+00  0.00000000E+00 -1.23543769E-05 -4.00775511E-05
 -2.09990748E-06 -4.05931306E-05  8.29491973E-06  2.58954716E-05  0.00000000E+00
  2.05606349E-04 -5.86629324E-06  3.21475650E-04  0.00000000E+00 -8.13855151E-04
  5.46058094E-04  1.19136473E-03  0.00000000E+00 -1.54024207E-02 -4.12772792E-03
  2.35277079E-03  0.00000000E+00 -3.28613161E-05  0.00000000E+00  0.00000000E+00
 -1.77159321E-04 -4.53286267E-05 -5.01926658E-06  7.22895702E-05  1.32235719E-04
  4.39382730E-04  1.65376724E-06  5.82666905E-06  0.00000000E+00 -9.19902595E-07
 -2.07675132E-05 -1.36772360E-04 -6.44315954E-04  6.23456932E-06  3.99322962E-06
  0.00000000E+00 -9.60111126E-06  1.95643972E-04  1.99539301E-04  8.94202985E-04
 -2.23226699E-05 -1.86226693E-05  0.00000000E+00 -1.18197426E-05  1.92657117E-04
  3.17008846E-04  5.66734876E-04  3.22397541E-05 -9.11732372E-06  0.00000000E+00
  3.75816516E-06 -5.75147372E-05 -1.78823230E-04 -4.67596246E-04 -5.16917087E-06
  3.72879297E-06  0.00000000E+00  5.51464106E-01  4.71651872E-01 -1.45951722E-03
 -9.95976030E-04  0.00000000E+00  5.72092317E-03  6.40079726E-04  3.92831222E-04