 Entering Gaussian System, Link 0=g09
 Initial command:
 /apps/software//g09/l1.exe /scratch/itamar/2472.cluster.abaxnet/Gau-11590.inp -scrdir=/scratch/itamar/2472.cluster.abaxnet/
 Entering Link 1 = /apps/software//g09/l1.exe PID=     11591.
  
 Copyright (c) 1988,1990,1992,1993,1995,1998,2003,2009, Gaussian, Inc.
                  All Rights Reserved.
  
 This is part of the Gaussian(R) 09 program.  It is based on
 the Gaussian(R) 03 system (copyright 2003, Gaussian, Inc.),
 the Gaussian(R) 98 system (copyright 1998, Gaussian, Inc.),
 the Gaussian(R) 94 system (copyright 1995, Gaussian, Inc.),
 the Gaussian 92(TM) system (copyright 1992, Gaussian, Inc.),
 the Gaussian 90(TM) system (copyright 1990, Gaussian, Inc.),
 the Gaussian 88(TM) system (copyright 1988, Gaussian, Inc.),
 the Gaussian 86(TM) system (copyright 1986, Carnegie Mellon
 University), and the Gaussian 82(TM) system (copyright 1983,
 Carnegie Mellon University). Gaussian is a federally registered
 trademark of Gaussian, Inc.
  
 This software contains proprietary and confidential information,
 including trade secrets, belonging to Gaussian, Inc.
  
 This software is provided under written license and may be
 used, copied, transmitted, or stored only in accord with that
 written license.
  
 The following legend is applicable only to US Government
 contracts under FAR:
  
                    RESTRICTED RIGHTS LEGEND
  
 Use, reproduction and disclosure by the US Government is
 subject to restrictions as set forth in subparagraphs (a)
 and (c) of the Commercial Computer Software - Restricted
 Rights clause in FAR 52.227-19.
  
 Gaussian, Inc.
 340 Quinnipiac St., Bldg. 40, Wallingford CT 06492
  
  
 ---------------------------------------------------------------
 Warning -- This program may not be used in any manner that
 competes with the business of Gaussian, Inc. or will provide
 assistance to any competitor of Gaussian, Inc.  The licensee
 of this program is prohibited from giving any competitor of
 Gaussian, Inc. access to this program.  By using this program,
 the user acknowledges that Gaussian, Inc. is engaged in the
 business of creating and licensing software in the field of
 computational chemistry and represents and warrants to the
 licensee that it is not a competitor of Gaussian, Inc. and that
 it will not use this program in any manner prohibited above.
 ---------------------------------------------------------------
  

 Cite this work as:
 Gaussian 09, Revision A.02,
 M. J. Frisch, G. W. Trucks, H. B. Schlegel, G. E. Scuseria, 
 M. A. Robb, J. R. Cheeseman, G. Scalmani, V. Barone, B. Mennucci, 
 G. A. Petersson, H. Nakatsuji, M. Caricato, X. Li, H. P. Hratchian, 
 A. F. Izmaylov, J. Bloino, G. Zheng, J. L. Sonnenberg, M. Hada, 
 M. Ehara, K. Toyota, R. Fukuda, J. Hasegawa, M. Ishida, T. Nakajima, 
 Y. Honda, O. Kitao, H. Nakai, T. Vreven, J. A. Montgomery, Jr., 
 J. E. Peralta, F. Ogliaro, M. Bearpark, J. J. Heyd, E. Brothers, 
 K. N. Kudin, V. N. Staroverov, R. Kobayashi, J. Normand, 
 K. Raghavachari, A. Rendell, J. C. Burant, S. S. Iyengar, J. Tomasi, 
 M. Cossi, N. Rega, J. M. Millam, M. Klene, J. E. Knox, J. B. Cross, 
 V. Bakken, C. Adamo, J. Jaramillo, R. Gomperts, R. E. Stratmann, 
 O. Yazyev, A. J. Austin, R. Cammi, C. Pomelli, J. W. Ochterski, 
 R. L. Martin, K. Morokuma, V. G. Zakrzewski, G. A. Voth, 
 P. Salvador, J. J. Dannenberg, S. Dapprich, A. D. Daniels, 
 O. Farkas, J. B. Foresman, J. V. Ortiz, J. Cioslowski, 
 and D. J. Fox, Gaussian, Inc., Wallingford CT, 2009.
 
 ******************************************
 Gaussian 09:  EM64L-G09RevA.02 11-Jun-2009
                 3-Dec-2021 
 ******************************************
 %Mem=3800MB
 %NProcShared=6
 Will use up to    6 processors via shared memory.
 %chk=/home/itamar/Aromaticity-test-set/T6-Subst-Complex-in-Benzene/OH/oh.chk
 -----------------------------
 #P MP2/6-311++G** DENSITY=MP2
 -----------------------------
 1/30=1,38=1/1;
 2/12=2,17=6,18=5,40=1/2;
 3/5=4,6=6,7=1111,11=9,16=1,25=1,30=1,71=1/1,2,3;
 4//1;
 5/5=2,38=5/2;
 8/6=4,10=2/1;
 9/15=1,16=-3/6;
 10/5=1,13=10/2;
 6/7=2,8=2,9=2,10=2,22=2/1;
 99/5=1,9=1/99;
 Leave Link    1 at Fri Dec  3 14:36:26 2021, MaxMem=  498073600 cpu:       0.2
 (Enter /apps/software//g09/l101.exe)
 ----
 X=OH
 ----
 Symbolic Z-matrix:
 Charge =  0 Multiplicity = 1
 6                    -1.20394   0.23193   0. 
 6                    -1.18789  -1.16213   0. 
 6                     0.02027  -1.85525   0. 
 6                     1.21834  -1.13888   0. 
 6                     1.21547   0.25207   0. 
 6                     0.        0.93845   0. 
 1                     0.02964  -2.93855   0. 
 1                     2.16529  -1.66711   0. 
 1                     2.13856   0.81905   0. 
 1                    -2.14868   0.76818   0. 
 1                    -2.12708  -1.7039    0. 
 8                     0.05135   2.30737   0. 
 1                    -0.84198   2.66622   0. 
 
 NAtoms=     13 NQM=     13 NQMF=      0 NMic=      0 NMicF=      0 NTot=     13.
                    Isotopes and Nuclear Properties:
 (Nuclear quadrupole moments (NQMom) in fm**2, nuclear magnetic moments (NMagM)
  in nuclear magnetons)

  Atom         1           2           3           4           5           6           7           8           9          10
 IAtWgt=          12          12          12          12          12          12           1           1           1           1
 AtmWgt=  12.0000000  12.0000000  12.0000000  12.0000000  12.0000000  12.0000000   1.0078250   1.0078250   1.0078250   1.0078250
 NucSpn=           0           0           0           0           0           0           1           1           1           1
 AtZEff=   0.0000000   0.0000000   0.0000000   0.0000000   0.0000000   0.0000000   0.0000000   0.0000000   0.0000000   0.0000000
 NQMom=    0.0000000   0.0000000   0.0000000   0.0000000   0.0000000   0.0000000   0.0000000   0.0000000   0.0000000   0.0000000
 NMagM=    0.0000000   0.0000000   0.0000000   0.0000000   0.0000000   0.0000000   2.7928460   2.7928460   2.7928460   2.7928460

  Atom        11          12          13
 IAtWgt=           1          16           1
 AtmWgt=   1.0078250  15.9949146   1.0078250
 NucSpn=           1           0           1
 AtZEff=   0.0000000   0.0000000   0.0000000
 NQMom=    0.0000000   0.0000000   0.0000000
 NMagM=    2.7928460   0.0000000   2.7928460
 Leave Link  101 at Fri Dec  3 14:36:26 2021, MaxMem=  498073600 cpu:       0.3
 (Enter /apps/software//g09/l202.exe)
                          Input orientation:                          
 ---------------------------------------------------------------------
 Center     Atomic      Atomic             Coordinates (Angstroms)
 Number     Number       Type             X           Y           Z
 ---------------------------------------------------------------------
      1          6           0       -1.203937    0.231932    0.000000
      2          6           0       -1.187890   -1.162126    0.000000
      3          6           0        0.020269   -1.855253    0.000000
      4          6           0        1.218336   -1.138884    0.000000
      5          6           0        1.215468    0.252074    0.000000
      6          6           0        0.000000    0.938451    0.000000
      7          1           0        0.029635   -2.938553    0.000000
      8          1           0        2.165288   -1.667106    0.000000
      9          1           0        2.138563    0.819051    0.000000
     10          1           0       -2.148683    0.768176    0.000000
     11          1           0       -2.127082   -1.703895    0.000000
     12          8           0        0.051348    2.307369    0.000000
     13          1           0       -0.841975    2.666215    0.000000
 ---------------------------------------------------------------------
                    Distance matrix (angstroms):
                    1          2          3          4          5
     1  C    0.000000
     2  C    1.394150   0.000000
     3  C    2.419715   1.392865   0.000000
     4  C    2.783261   2.406338   1.395904   0.000000
     5  C    2.419489   2.788564   2.422670   1.390961   0.000000
     6  C    1.395935   2.413194   2.793778   2.408249   1.395878
     7  H    3.402010   2.153616   1.083340   2.156807   3.403866
     8  H    3.867560   3.390989   2.153255   1.084314   2.141357
     9  H    3.393673   3.871738   3.411608   2.163406   1.083313
    10  H    1.086325   2.156198   3.403929   3.869586   3.403509
    11  H    2.144673   1.084249   2.152679   3.392795   3.872784
    12  O    2.425527   3.684170   4.162738   3.638478   2.362078
    13  H    2.461047   3.843937   4.602949   4.327084   3.171931
                    6          7          8          9         10
     6  C    0.000000
     7  H    3.877117   0.000000
     8  H    3.387831   2.485476   0.000000
     9  H    2.141894   4.308963   2.486301   0.000000
    10  H    2.155419   4.299408   4.953882   4.287548   0.000000
    11  H    3.392119   2.485117   4.292528   4.955904   2.472165
    12  O    1.369881   5.245967   4.501688   2.563505   2.685005
    13  H    1.922002   5.672136   5.274590   3.506511   2.304352
                   11         12         13
    11  H    0.000000
    12  O    4.564624   0.000000
    13  H    4.555147   0.962703   0.000000
 Stoichiometry    C6H6O
 Framework group  CS[SG(C6H6O)]
 Deg. of freedom    23
 Full point group                 CS      NOp   2
 Largest Abelian subgroup         CS      NOp   2
 Largest concise Abelian subgroup C1      NOp   1
                         Standard orientation:                         
 ---------------------------------------------------------------------
 Center     Atomic      Atomic             Coordinates (Angstroms)
 Number     Number       Type             X           Y           Z
 ---------------------------------------------------------------------
      1          6           0       -1.203937    0.231932    0.000000
      2          6           0       -1.187890   -1.162126    0.000000
      3          6           0        0.020269   -1.855253    0.000000
      4          6           0        1.218336   -1.138884    0.000000
      5          6           0        1.215468    0.252074    0.000000
      6          6           0        0.000000    0.938451    0.000000
      7          1           0        0.029635   -2.938553    0.000000
      8          1           0        2.165288   -1.667106    0.000000
      9          1           0        2.138563    0.819051    0.000000
     10          1           0       -2.148683    0.768176    0.000000
     11          1           0       -2.127082   -1.703895    0.000000
     12          8           0        0.051348    2.307369    0.000000
     13          1           0       -0.841975    2.666215    0.000000
 ---------------------------------------------------------------------
 Rotational constants (GHZ):      5.6677672      2.6181205      1.7908639
 Leave Link  202 at Fri Dec  3 14:36:26 2021, MaxMem=  498073600 cpu:       0.0
 (Enter /apps/software//g09/l301.exe)
 Standard basis: 6-311++G(d,p) (5D, 7F)
 Ernie: Thresh=  0.10000D-02 Tol=  0.10000D-05 Strict=F.
 There are   148 symmetry adapted basis functions of A'  symmetry.
 There are    48 symmetry adapted basis functions of A"  symmetry.
 Integral buffers will be    131072 words long.
 Raffenetti 1 integral format.
 Two-electron integral symmetry is turned on.
   196 basis functions,   306 primitive gaussians,   203 cartesian basis functions
    25 alpha electrons       25 beta electrons
       nuclear repulsion energy       271.1327879571 Hartrees.
 IExCor=    0 DFT=F Ex=HF Corr=None ExCW=0 ScaHFX=  1.000000
 ScaDFX=  1.000000  1.000000  1.000000  1.000000 ScalE2=  1.000000  1.000000
 IRadAn=      0 IRanWt=     -1 IRanGd=            0 ICorTp=0
 NAtoms=   13 NActive=   13 NUniq=   13 SFac= 7.50D-01 NAtFMM=   80 NAOKFM=F Big=F
 Leave Link  301 at Fri Dec  3 14:36:26 2021, MaxMem=  498073600 cpu:       0.2
 (Enter /apps/software//g09/l302.exe)
 NPDir=0 NMtPBC=     1 NCelOv=     1 NCel=       1 NClECP=     1 NCelD=      1
         NCelK=      1 NCelE2=     1 NClLst=     1 CellRange=     0.0.
 One-electron integrals computed using PRISM.
 NBasis=   196 RedAO= T  NBF=   148    48
 NBsUse=   196 1.00D-06 NBFU=   148    48
 Leave Link  302 at Fri Dec  3 14:36:26 2021, MaxMem=  498073600 cpu:       1.5
 (Enter /apps/software//g09/l303.exe)
 DipDrv:  MaxL=1.
 Leave Link  303 at Fri Dec  3 14:36:27 2021, MaxMem=  498073600 cpu:       0.2
 (Enter /apps/software//g09/l401.exe)
 Harris functional with IExCor=  205 diagonalized for initial guess.
 ExpMin= 3.60D-02 ExpMax= 8.59D+03 ExpMxC= 1.30D+03 IAcc=3 IRadAn=         0 AccDes= 0.00D+00
 HarFok:  IExCor=  205 AccDes= 0.00D+00 IRadAn=         0 IDoV= 1
 ScaDFX=  1.000000  1.000000  1.000000  1.000000
 FoFCou: FMM=F IPFlag=           0 FMFlag=      100000 FMFlg1=           0
         NFxFlg=           0 DoJE=T BraDBF=F KetDBF=T FulRan=T
         Omega=  0.000000  0.000000  1.000000  0.000000  0.000000 ICntrl=     500 IOpCl=  0
         NMat0=    1 NMatS0=    1 NMatT0=    0 NMatD0=    1 NMtDS0=    0 NMtDT0=    0
         I1Cent=           4 NGrid=           0.
 Petite list used in FoFCou.
 Harris En= -306.059663716955    
 Initial guess orbital symmetries:
       Occupied  (A') (A') (A') (A') (A') (A') (A') (A') (A') (A')
                 (A') (A') (A') (A') (A') (A') (A') (A') (A") (A')
                 (A') (A') (A") (A") (A")
       Virtual   (A") (A") (A') (A') (A") (A') (A') (A') (A') (A")
                 (A') (A') (A") (A') (A") (A') (A') (A') (A') (A')
                 (A') (A') (A") (A") (A') (A') (A') (A') (A') (A")
                 (A') (A') (A') (A') (A') (A') (A") (A') (A') (A')
                 (A') (A') (A') (A') (A') (A') (A') (A') (A') (A')
                 (A') (A") (A') (A') (A') (A") (A") (A') (A') (A")
                 (A") (A') (A') (A") (A') (A') (A') (A') (A') (A')
                 (A') (A') (A') (A') (A') (A") (A') (A') (A") (A')
                 (A") (A') (A") (A") (A") (A') (A") (A') (A') (A')
                 (A') (A") (A') (A') (A') (A") (A") (A') (A") (A')
                 (A') (A') (A') (A") (A") (A') (A') (A") (A') (A")
                 (A') (A') (A') (A") (A') (A') (A') (A") (A') (A")
                 (A") (A') (A') (A') (A') (A') (A") (A') (A') (A")
                 (A') (A") (A') (A') (A') (A') (A') (A") (A') (A")
                 (A') (A') (A") (A') (A') (A") (A") (A') (A') (A')
                 (A') (A') (A') (A') (A') (A') (A') (A') (A') (A')
                 (A') (A") (A') (A') (A') (A') (A') (A') (A') (A')
                 (A')
 The electronic state of the initial guess is 1-A'.
 Leave Link  401 at Fri Dec  3 14:36:27 2021, MaxMem=  498073600 cpu:       3.2
 (Enter /apps/software//g09/l502.exe)
 Closed shell SCF:
 Requested convergence on RMS density matrix=1.00D-08 within 128 cycles.
 Requested convergence on MAX density matrix=1.00D-06.
 Requested convergence on             energy=1.00D-06.
 No special actions if energy rises.
 Using DIIS extrapolation, IDIIS=  1040.
 Integral symmetry usage will be decided dynamically.
 Keep R1 ints in memory in canonical form, NReq=218768890.
 IEnd=      144575 IEndB=      144575 NGot=   498073600 MDV=   283607479
 LenX=   283607479 LenY=   283565829
 Symmetry not used in FoFDir.
 MinBra= 0 MaxBra= 2 Meth= 1.
 IRaf=       0 NMat=   1 IRICut=       1 DoRegI=T DoRafI=F ISym2E= 0 JSym2E=0.

 Cycle   1  Pass 1  IDiag  1:
 E= -305.303047708786    
 DIIS: error= 7.34D-02 at cycle   1 NSaved=   1.
 NSaved= 1 IEnMin= 1 EnMin= -305.303047708786     IErMin= 1 ErrMin= 7.34D-02
 ErrMax= 7.34D-02 EMaxC= 1.00D-01 BMatC= 6.42D-01 BMatP= 6.42D-01
 IDIUse=3 WtCom= 2.66D-01 WtEn= 7.34D-01
 Coeff-Com:  0.100D+01
 Coeff-En:   0.100D+01
 Coeff:      0.100D+01
 Gap=     0.341 Goal=   None    Shift=    0.000
 GapD=    0.341 DampG=1.000 DampE=0.500 DampFc=0.5000 IDamp=-1.
 Damping current iteration by 5.00D-01
 RMSDP=1.48D-02 MaxDP=8.29D-01              OVMax= 1.62D-01

 Cycle   2  Pass 1  IDiag  1:
 E= -305.479395703126     Delta-E=       -0.176347994340 Rises=F Damp=T
 DIIS: error= 2.92D-02 at cycle   2 NSaved=   2.
 NSaved= 2 IEnMin= 2 EnMin= -305.479395703126     IErMin= 2 ErrMin= 2.92D-02
 ErrMax= 2.92D-02 EMaxC= 1.00D-01 BMatC= 1.37D-01 BMatP= 6.42D-01
 IDIUse=3 WtCom= 7.08D-01 WtEn= 2.92D-01
 Coeff-Com: -0.689D+00 0.169D+01
 Coeff-En:   0.000D+00 0.100D+01
 Coeff:     -0.488D+00 0.149D+01
 Gap=     0.368 Goal=   None    Shift=    0.000
 RMSDP=6.55D-03 MaxDP=5.26D-01 DE=-1.76D-01 OVMax= 5.28D-02

 Cycle   3  Pass 1  IDiag  1:
 E= -305.636725975340     Delta-E=       -0.157330272214 Rises=F Damp=F
 DIIS: error= 3.14D-03 at cycle   3 NSaved=   3.
 NSaved= 3 IEnMin= 3 EnMin= -305.636725975340     IErMin= 3 ErrMin= 3.14D-03
 ErrMax= 3.14D-03 EMaxC= 1.00D-01 BMatC= 1.54D-03 BMatP= 1.37D-01
 IDIUse=3 WtCom= 9.69D-01 WtEn= 3.14D-02
 Coeff-Com: -0.952D-01 0.154D+00 0.942D+00
 Coeff-En:   0.000D+00 0.000D+00 0.100D+01
 Coeff:     -0.922D-01 0.149D+00 0.944D+00
 Gap=     0.357 Goal=   None    Shift=    0.000
 RMSDP=1.58D-03 MaxDP=1.02D-01 DE=-1.57D-01 OVMax= 1.31D-02

 Cycle   4  Pass 1  IDiag  1:
 E= -305.638229177775     Delta-E=       -0.001503202435 Rises=F Damp=F
 DIIS: error= 1.20D-03 at cycle   4 NSaved=   4.
 NSaved= 4 IEnMin= 4 EnMin= -305.638229177775     IErMin= 4 ErrMin= 1.20D-03
 ErrMax= 1.20D-03 EMaxC= 1.00D-01 BMatC= 1.23D-04 BMatP= 1.54D-03
 IDIUse=3 WtCom= 9.88D-01 WtEn= 1.20D-02
 Coeff-Com: -0.789D-02 0.442D-02 0.178D+00 0.825D+00
 Coeff-En:   0.000D+00 0.000D+00 0.000D+00 0.100D+01
 Coeff:     -0.780D-02 0.437D-02 0.176D+00 0.827D+00
 Gap=     0.356 Goal=   None    Shift=    0.000
 RMSDP=2.85D-04 MaxDP=2.09D-02 DE=-1.50D-03 OVMax= 4.12D-03

 Cycle   5  Pass 1  IDiag  1:
 E= -305.638369380426     Delta-E=       -0.000140202651 Rises=F Damp=F
 DIIS: error= 6.11D-04 at cycle   5 NSaved=   5.
 NSaved= 5 IEnMin= 5 EnMin= -305.638369380426     IErMin= 5 ErrMin= 6.11D-04
 ErrMax= 6.11D-04 EMaxC= 1.00D-01 BMatC= 1.87D-05 BMatP= 1.23D-04
 IDIUse=3 WtCom= 9.94D-01 WtEn= 6.11D-03
 Coeff-Com:  0.979D-02-0.176D-01-0.777D-01 0.173D+00 0.912D+00
 Coeff-En:   0.000D+00 0.000D+00 0.000D+00 0.000D+00 0.100D+01
 Coeff:      0.973D-02-0.175D-01-0.772D-01 0.172D+00 0.913D+00
 Gap=     0.356 Goal=   None    Shift=    0.000
 RMSDP=1.14D-04 MaxDP=7.91D-03 DE=-1.40D-04 OVMax= 2.29D-03

 Cycle   6  Pass 1  IDiag  1:
 E= -305.638399359419     Delta-E=       -0.000029978993 Rises=F Damp=F
 DIIS: error= 1.13D-04 at cycle   6 NSaved=   6.
 NSaved= 6 IEnMin= 6 EnMin= -305.638399359419     IErMin= 6 ErrMin= 1.13D-04
 ErrMax= 1.13D-04 EMaxC= 1.00D-01 BMatC= 1.26D-06 BMatP= 1.87D-05
 IDIUse=3 WtCom= 9.99D-01 WtEn= 1.13D-03
 Coeff-Com:  0.157D-02-0.213D-02-0.182D-01-0.814D-01 0.415D-01 0.106D+01
 Coeff-En:   0.000D+00 0.000D+00 0.000D+00 0.000D+00 0.000D+00 0.100D+01
 Coeff:      0.157D-02-0.213D-02-0.181D-01-0.813D-01 0.414D-01 0.106D+01
 Gap=     0.356 Goal=   None    Shift=    0.000
 RMSDP=6.71D-05 MaxDP=5.85D-03 DE=-3.00D-05 OVMax= 5.23D-04

 Cycle   7  Pass 1  IDiag  1:
 E= -305.638402079464     Delta-E=       -0.000002720045 Rises=F Damp=F
 DIIS: error= 4.49D-05 at cycle   7 NSaved=   7.
 NSaved= 7 IEnMin= 7 EnMin= -305.638402079464     IErMin= 7 ErrMin= 4.49D-05
 ErrMax= 4.49D-05 EMaxC= 1.00D-01 BMatC= 8.38D-08 BMatP= 1.26D-06
 IDIUse=1 WtCom= 1.00D+00 WtEn= 0.00D+00
 Coeff-Com: -0.600D-03 0.993D-03 0.685D-02-0.128D-02-0.444D-01-0.147D+00
 Coeff-Com:  0.119D+01
 Coeff:     -0.600D-03 0.993D-03 0.685D-02-0.128D-02-0.444D-01-0.147D+00
 Coeff:      0.119D+01
 Gap=     0.356 Goal=   None    Shift=    0.000
 RMSDP=1.60D-05 MaxDP=1.01D-03 DE=-2.72D-06 OVMax= 2.27D-04

 Cycle   8  Pass 1  IDiag  1:
 E= -305.638402328102     Delta-E=       -0.000000248638 Rises=F Damp=F
 DIIS: error= 1.27D-05 at cycle   8 NSaved=   8.
 NSaved= 8 IEnMin= 8 EnMin= -305.638402328102     IErMin= 8 ErrMin= 1.27D-05
 ErrMax= 1.27D-05 EMaxC= 1.00D-01 BMatC= 1.52D-08 BMatP= 8.38D-08
 IDIUse=1 WtCom= 1.00D+00 WtEn= 0.00D+00
 Coeff-Com: -0.319D-03 0.462D-03 0.385D-02 0.108D-01-0.105D-01-0.184D+00
 Coeff-Com:  0.205D+00 0.974D+00
 Coeff:     -0.319D-03 0.462D-03 0.385D-02 0.108D-01-0.105D-01-0.184D+00
 Coeff:      0.205D+00 0.974D+00
 Gap=     0.356 Goal=   None    Shift=    0.000
 RMSDP=5.90D-06 MaxDP=3.64D-04 DE=-2.49D-07 OVMax= 1.08D-04

 Cycle   9  Pass 1  IDiag  1:
 E= -305.638402367016     Delta-E=       -0.000000038913 Rises=F Damp=F
 DIIS: error= 8.28D-06 at cycle   9 NSaved=   9.
 NSaved= 9 IEnMin= 9 EnMin= -305.638402367016     IErMin= 9 ErrMin= 8.28D-06
 ErrMax= 8.28D-06 EMaxC= 1.00D-01 BMatC= 1.26D-09 BMatP= 1.52D-08
 IDIUse=1 WtCom= 1.00D+00 WtEn= 0.00D+00
 Coeff-Com:  0.338D-04-0.627D-04-0.357D-03 0.611D-03 0.397D-02 0.819D-03
 Coeff-Com: -0.835D-01 0.225D-01 0.106D+01
 Coeff:      0.338D-04-0.627D-04-0.357D-03 0.611D-03 0.397D-02 0.819D-03
 Coeff:     -0.835D-01 0.225D-01 0.106D+01
 Gap=     0.356 Goal=   None    Shift=    0.000
 RMSDP=1.12D-06 MaxDP=4.99D-05 DE=-3.89D-08 OVMax= 4.65D-05

 Cycle  10  Pass 1  IDiag  1:
 E= -305.638402372259     Delta-E=       -0.000000005243 Rises=F Damp=F
 DIIS: error= 3.68D-06 at cycle  10 NSaved=  10.
 NSaved=10 IEnMin=10 EnMin= -305.638402372259     IErMin=10 ErrMin= 3.68D-06
 ErrMax= 3.68D-06 EMaxC= 1.00D-01 BMatC= 2.86D-10 BMatP= 1.26D-09
 IDIUse=1 WtCom= 1.00D+00 WtEn= 0.00D+00
 Coeff-Com:  0.426D-04-0.639D-04-0.503D-03-0.124D-02 0.164D-02 0.223D-01
 Coeff-Com: -0.302D-01-0.131D+00 0.113D+00 0.103D+01
 Coeff:      0.426D-04-0.639D-04-0.503D-03-0.124D-02 0.164D-02 0.223D-01
 Coeff:     -0.302D-01-0.131D+00 0.113D+00 0.103D+01
 Gap=     0.356 Goal=   None    Shift=    0.000
 RMSDP=4.66D-07 MaxDP=1.46D-05 DE=-5.24D-09 OVMax= 2.90D-05

 Cycle  11  Pass 1  IDiag  1:
 E= -305.638402373734     Delta-E=       -0.000000001475 Rises=F Damp=F
 DIIS: error= 2.24D-06 at cycle  11 NSaved=  11.
 NSaved=11 IEnMin=11 EnMin= -305.638402373734     IErMin=11 ErrMin= 2.24D-06
 ErrMax= 2.24D-06 EMaxC= 1.00D-01 BMatC= 8.20D-11 BMatP= 2.86D-10
 IDIUse=1 WtCom= 1.00D+00 WtEn= 0.00D+00
 Coeff-Com: -0.116D-04 0.201D-04 0.160D-03 0.700D-04-0.140D-02-0.320D-02
 Coeff-Com:  0.318D-01-0.615D-03-0.332D+00 0.719D-02 0.130D+01
 Coeff:     -0.116D-04 0.201D-04 0.160D-03 0.700D-04-0.140D-02-0.320D-02
 Coeff:      0.318D-01-0.615D-03-0.332D+00 0.719D-02 0.130D+01
 Gap=     0.356 Goal=   None    Shift=    0.000
 RMSDP=3.45D-07 MaxDP=1.95D-05 DE=-1.47D-09 OVMax= 1.91D-05

 Cycle  12  Pass 1  IDiag  1:
 E= -305.638402374254     Delta-E=       -0.000000000520 Rises=F Damp=F
 DIIS: error= 4.82D-07 at cycle  12 NSaved=  12.
 NSaved=12 IEnMin=12 EnMin= -305.638402374254     IErMin=12 ErrMin= 4.82D-07
 ErrMax= 4.82D-07 EMaxC= 1.00D-01 BMatC= 7.65D-12 BMatP= 8.20D-11
 IDIUse=1 WtCom= 1.00D+00 WtEn= 0.00D+00
 Coeff-Com: -0.674D-05 0.102D-04 0.778D-04 0.200D-03-0.289D-03-0.360D-02
 Coeff-Com:  0.493D-02 0.175D-01-0.111D-01-0.124D+00-0.133D+00 0.125D+01
 Coeff:     -0.674D-05 0.102D-04 0.778D-04 0.200D-03-0.289D-03-0.360D-02
 Coeff:      0.493D-02 0.175D-01-0.111D-01-0.124D+00-0.133D+00 0.125D+01
 Gap=     0.356 Goal=   None    Shift=    0.000
 RMSDP=1.18D-07 MaxDP=4.73D-06 DE=-5.20D-10 OVMax= 7.39D-06

 Cycle  13  Pass 1  IDiag  1:
 E= -305.638402374304     Delta-E=       -0.000000000050 Rises=F Damp=F
 DIIS: error= 1.06D-07 at cycle  13 NSaved=  13.
 NSaved=13 IEnMin=13 EnMin= -305.638402374304     IErMin=13 ErrMin= 1.06D-07
 ErrMax= 1.06D-07 EMaxC= 1.00D-01 BMatC= 6.95D-13 BMatP= 7.65D-12
 IDIUse=1 WtCom= 1.00D+00 WtEn= 0.00D+00
 Coeff-Com: -0.680D-07-0.123D-06-0.348D-05 0.269D-04 0.765D-04-0.236D-03
 Coeff-Com: -0.218D-02 0.216D-02 0.305D-01-0.735D-02-0.159D+00 0.183D+00
 Coeff-Com:  0.954D+00
 Coeff:     -0.680D-07-0.123D-06-0.348D-05 0.269D-04 0.765D-04-0.236D-03
 Coeff:     -0.218D-02 0.216D-02 0.305D-01-0.735D-02-0.159D+00 0.183D+00
 Coeff:      0.954D+00
 Gap=     0.356 Goal=   None    Shift=    0.000
 RMSDP=4.62D-08 MaxDP=2.38D-06 DE=-5.01D-11 OVMax= 1.04D-06

 Cycle  14  Pass 1  IDiag  1:
 E= -305.638402374304     Delta-E=        0.000000000000 Rises=F Damp=F
 DIIS: error= 2.09D-08 at cycle  14 NSaved=  14.
 NSaved=14 IEnMin=14 EnMin= -305.638402374304     IErMin=14 ErrMin= 2.09D-08
 ErrMax= 2.09D-08 EMaxC= 1.00D-01 BMatC= 6.84D-14 BMatP= 6.95D-13
 IDIUse=1 WtCom= 1.00D+00 WtEn= 0.00D+00
 Coeff-Com:  0.568D-06-0.852D-06-0.718D-05-0.166D-04 0.180D-04 0.355D-03
 Coeff-Com: -0.336D-03-0.191D-02-0.386D-03 0.164D-01 0.125D-01-0.144D+00
 Coeff-Com:  0.287D-01 0.109D+01
 Coeff:      0.568D-06-0.852D-06-0.718D-05-0.166D-04 0.180D-04 0.355D-03
 Coeff:     -0.336D-03-0.191D-02-0.386D-03 0.164D-01 0.125D-01-0.144D+00
 Coeff:      0.287D-01 0.109D+01
 Gap=     0.356 Goal=   None    Shift=    0.000
 RMSDP=2.06D-08 MaxDP=1.09D-06 DE=-2.27D-13 OVMax= 2.63D-07

 Cycle  15  Pass 1  IDiag  1:
 E= -305.638402374302     Delta-E=        0.000000000002 Rises=F Damp=F
 DIIS: error= 1.04D-08 at cycle  15 NSaved=  15.
 NSaved=15 IEnMin=14 EnMin= -305.638402374304     IErMin=15 ErrMin= 1.04D-08
 ErrMax= 1.04D-08 EMaxC= 1.00D-01 BMatC= 4.54D-15 BMatP= 6.84D-14
 IDIUse=1 WtCom= 1.00D+00 WtEn= 0.00D+00
 Coeff-Com: -0.179D-06 0.282D-06 0.262D-05 0.448D-05-0.141D-04-0.996D-04
 Coeff-Com:  0.319D-03 0.262D-03-0.223D-02-0.263D-02 0.567D-02 0.253D-01
 Coeff-Com: -0.472D-01-0.340D+00 0.136D+01
 Coeff:     -0.179D-06 0.282D-06 0.262D-05 0.448D-05-0.141D-04-0.996D-04
 Coeff:      0.319D-03 0.262D-03-0.223D-02-0.263D-02 0.567D-02 0.253D-01
 Coeff:     -0.472D-01-0.340D+00 0.136D+01
 Gap=     0.356 Goal=   None    Shift=    0.000
 RMSDP=8.02D-09 MaxDP=3.71D-07 DE= 1.59D-12 OVMax= 8.12D-08

 SCF Done:  E(RHF) =  -305.638402374     A.U. after   15 cycles
             Convg  =    0.8018D-08             -V/T =  2.0012
 KE= 3.052631340959D+02 PE=-1.256840514442D+03 EE= 3.748061900141D+02
 Leave Link  502 at Fri Dec  3 14:36:41 2021, MaxMem=  498073600 cpu:      84.2
 (Enter /apps/software//g09/l801.exe)
 ExpMin= 3.60D-02 ExpMax= 8.59D+03 ExpMxC= 1.30D+03 IAcc=3 IRadAn=         5 AccDes= 0.00D+00
 HarFok:  IExCor=  205 AccDes= 0.00D+00 IRadAn=         5 IDoV=-2
 ScaDFX=  1.000000  1.000000  1.000000  1.000000
 Largest valence mixing into a core orbital is  1.36D-04
 Largest core mixing into a valence orbital is  4.20D-05
 Range of M.O.s used for correlation:     8   196
 NBasis=   196 NAE=    25 NBE=    25 NFC=     7 NFV=     0
 NROrb=    189 NOA=    18 NOB=    18 NVA=   171 NVB=   171

 **** Warning!!: The largest alpha MO coefficient is  0.20911651D+03

 Leave Link  801 at Fri Dec  3 14:36:41 2021, MaxMem=  498073600 cpu:       1.3
 (Enter /apps/software//g09/l906.exe)
 Frozen-core derivative calculation, NFC=   7 NFV=   0.
 FulOut=F Deriv=T AODrv=F NAtomX=    13
   MMem=         118  MDisk=          18 MDiskD=          18
  W3Min=      994700 MinDsk=     1435678 NBas6D=         203
 NBas2D=       20997    NTT=       20706    LW2=     2040000
    MDV=   497583984 MDiskM=       33906 NBas2p=       20583
 Fully in-core method, ICMem=   448627144.
 IMap=   1   2   3   4   5   6   7   8   9  10  11  12  13  14  15  16  17  18  19  20
 IMap=  21  22  23  24  25
 JobTyp=1 Pass  1 fully in-core, NPsUse=  6.
 Compute canonical integrals, IntTyp=   4.
 Symmetry not used in FoFDir.
 MinBra= 0 MaxBra= 2 Meth= 1.
 IRaf=       0 NMat=   1 IRICut=       1 DoRegI=T DoRafI=F ISym2E= 0 JSym2E=0.
 Spin components of T(2) and E(2):
     alpha-alpha T2 =       0.4925915913D-01 E2=     -0.1364365523D+00
     alpha-beta  T2 =       0.2558195518D+00 E2=     -0.7547865992D+00
     beta-beta   T2 =       0.4925915913D-01 E2=     -0.1364365523D+00
 The integrals were generated   1 times.
 ANorm=    0.1163760229D+01
 E2 =    -0.1027659704D+01 EUMP2 =    -0.30666606207817D+03
 Leave Link  906 at Fri Dec  3 14:37:34 2021, MaxMem=  498073600 cpu:     313.5
 (Enter /apps/software//g09/l1002.exe)
 Minotr:  Closed shell wavefunction.
          Computing MP2/KS-MP2 derivatives.
          Using Z-Vector for PSCF gradient.
          Skipping F1 and S1 gradient terms here.
          Frozen-core window.
          Direct CPHF calculation.
          Differentiating once with respect to electric field.
                with respect to dipole field.
          Electric field/nuclear overlap derivatives assumed to be zero.
          Using symmetry in CPHF.
          Requested convergence is 1.0D-10 RMS, and 1.0D-09 maximum.
          NewPWx=F KeepS1=T KeepF1=T KeepIn=T MapXYZ=F SortEE=F KeepMc=T.
          MDV=     498073492 using IRadAn=       0.
          Keep R1 ints in memory in canonical form, NReq=215201107.
 Symmetry not used in FoFDir.
 MinBra= 0 MaxBra= 2 Meth= 1.
 IRaf=       0 NMat=   1 IRICut=       1 DoRegI=T DoRafI=F ISym2E= 0 JSym2E=0.
          Solving linear equations separately, MaxMat=       0.
          There are     1 degrees of freedom in the 1st order CPHF.  IDoFFX=0.
 LinEq1:  Iter=  0 NonCon=     1 RMS=3.66D-03 Max=6.85D-02
 AX will form     1 AO Fock derivatives at one time.
 LinEq1:  Iter=  1 NonCon=     1 RMS=8.98D-04 Max=1.04D-02
 LinEq1:  Iter=  2 NonCon=     1 RMS=3.47D-04 Max=8.14D-03
 LinEq1:  Iter=  3 NonCon=     1 RMS=1.29D-04 Max=3.05D-03
 LinEq1:  Iter=  4 NonCon=     1 RMS=5.47D-05 Max=8.91D-04
 LinEq1:  Iter=  5 NonCon=     1 RMS=1.80D-05 Max=2.88D-04
 LinEq1:  Iter=  6 NonCon=     1 RMS=4.46D-06 Max=8.31D-05
 LinEq1:  Iter=  7 NonCon=     1 RMS=1.81D-06 Max=3.33D-05
 LinEq1:  Iter=  8 NonCon=     1 RMS=4.89D-07 Max=6.61D-06
 LinEq1:  Iter=  9 NonCon=     1 RMS=1.23D-07 Max=1.73D-06
 LinEq1:  Iter= 10 NonCon=     1 RMS=4.50D-08 Max=6.04D-07
 LinEq1:  Iter= 11 NonCon=     1 RMS=1.24D-08 Max=2.90D-07
 LinEq1:  Iter= 12 NonCon=     1 RMS=4.77D-09 Max=1.06D-07
 LinEq1:  Iter= 13 NonCon=     1 RMS=2.13D-09 Max=4.94D-08
 LinEq1:  Iter= 14 NonCon=     1 RMS=5.56D-10 Max=6.47D-09
 LinEq1:  Iter= 15 NonCon=     1 RMS=1.41D-10 Max=1.28D-09
 LinEq1:  Iter= 16 NonCon=     0 RMS=4.15D-11 Max=7.11D-10
 Linear equations converged to 1.000D-10 1.000D-09 after    16 iterations.
 End of Minotr Frequency-dependent properties file   721 does not exist.
 End of Minotr Frequency-dependent properties file   722 does not exist.
 Leave Link 1002 at Fri Dec  3 14:37:52 2021, MaxMem=  498073600 cpu:     109.7
 (Enter /apps/software//g09/l601.exe)
 Copying SCF densities to generalized density rwf, IOpCl= 0 IROHF=0.

 **********************************************************************

            Population analysis using the MP2 density.

 **********************************************************************

 Orbital symmetries:
       Occupied  (A') (A') (A') (A') (A') (A') (A') (A') (A') (A')
                 (A') (A') (A') (A') (A') (A') (A') (A') (A") (A')
                 (A') (A') (A") (A") (A")
       Virtual   (A') (A') (A') (A') (A') (A') (A") (A") (A") (A')
                 (A") (A') (A") (A') (A') (A') (A') (A') (A") (A')
                 (A') (A") (A') (A") (A') (A') (A') (A') (A') (A')
                 (A') (A') (A') (A') (A") (A") (A') (A') (A') (A')
                 (A') (A') (A') (A') (A') (A') (A') (A') (A') (A')
                 (A") (A') (A') (A') (A') (A") (A") (A') (A') (A')
                 (A") (A") (A") (A') (A') (A') (A') (A') (A') (A')
                 (A') (A') (A') (A') (A') (A') (A') (A") (A') (A')
                 (A") (A") (A") (A") (A') (A") (A") (A') (A') (A')
                 (A") (A') (A') (A') (A") (A') (A") (A') (A") (A')
                 (A') (A') (A") (A') (A") (A') (A') (A') (A") (A')
                 (A") (A') (A') (A") (A') (A') (A") (A') (A') (A")
                 (A') (A") (A') (A') (A') (A') (A') (A') (A') (A')
                 (A') (A") (A') (A') (A') (A") (A') (A") (A') (A")
                 (A") (A') (A") (A") (A') (A') (A") (A') (A') (A')
                 (A') (A') (A') (A') (A') (A') (A') (A') (A') (A')
                 (A') (A") (A') (A') (A') (A') (A') (A') (A') (A')
                 (A')
 The electronic state is 1-A'.
 Alpha  occ. eigenvalues --  -20.59211 -11.30853 -11.24685 -11.24459 -11.23914
 Alpha  occ. eigenvalues --  -11.23260 -11.23182  -1.40803  -1.15158  -1.02403
 Alpha  occ. eigenvalues --   -1.00913  -0.85029  -0.82682  -0.73760  -0.68844
 Alpha  occ. eigenvalues --   -0.65512  -0.61375  -0.59496  -0.59093  -0.57071
 Alpha  occ. eigenvalues --   -0.52030  -0.49728  -0.48498  -0.34486  -0.31803
 Alpha virt. eigenvalues --    0.03828   0.04589   0.05134   0.06481   0.07053
 Alpha virt. eigenvalues --    0.08935   0.10443   0.11804   0.13267   0.13300
 Alpha virt. eigenvalues --    0.15040   0.15596   0.15690   0.17066   0.17770
 Alpha virt. eigenvalues --    0.18111   0.18191   0.19395   0.20514   0.20603
 Alpha virt. eigenvalues --    0.20874   0.21222   0.21413   0.21526   0.22742
 Alpha virt. eigenvalues --    0.23805   0.24252   0.25513   0.28584   0.29002
 Alpha virt. eigenvalues --    0.29817   0.31958   0.33045   0.33259   0.33390
 Alpha virt. eigenvalues --    0.38325   0.38624   0.40427   0.41062   0.43011
 Alpha virt. eigenvalues --    0.43355   0.44847   0.45742   0.47828   0.50251
 Alpha virt. eigenvalues --    0.52350   0.53893   0.56525   0.64346   0.65577
 Alpha virt. eigenvalues --    0.70865   0.72124   0.72414   0.74113   0.75326
 Alpha virt. eigenvalues --    0.75332   0.75831   0.75922   0.79930   0.81416
 Alpha virt. eigenvalues --    0.81494   0.81900   0.88509   0.91479   0.94179
 Alpha virt. eigenvalues --    0.94833   0.96706   0.98513   1.00101   1.03438
 Alpha virt. eigenvalues --    1.04511   1.06790   1.07426   1.11140   1.11731
 Alpha virt. eigenvalues --    1.13267   1.13760   1.19844   1.21455   1.22310
 Alpha virt. eigenvalues --    1.23702   1.31463   1.31866   1.35500   1.37145
 Alpha virt. eigenvalues --    1.37974   1.46323   1.48107   1.50588   1.59393
 Alpha virt. eigenvalues --    1.65750   1.72622   1.76998   1.78966   1.82999
 Alpha virt. eigenvalues --    1.83089   1.83568   1.85739   1.88362   1.91146
 Alpha virt. eigenvalues --    1.92507   1.95693   2.01147   2.01231   2.04958
 Alpha virt. eigenvalues --    2.08542   2.10859   2.18693   2.22036   2.22211
 Alpha virt. eigenvalues --    2.23146   2.24706   2.25587   2.26847   2.32217
 Alpha virt. eigenvalues --    2.32932   2.37315   2.38901   2.41521   2.58090
 Alpha virt. eigenvalues --    2.64803   2.64869   2.74848   2.78136   2.78526
 Alpha virt. eigenvalues --    2.83959   2.90217   2.96261   2.97972   3.01210
 Alpha virt. eigenvalues --    3.02162   3.03221   3.03900   3.04712   3.07632
 Alpha virt. eigenvalues --    3.14090   3.17151   3.18295   3.20511   3.27241
 Alpha virt. eigenvalues --    3.28606   3.31568   3.47275   3.48349   3.50490
 Alpha virt. eigenvalues --    3.56762   3.57563   3.74751   3.78938   3.84566
 Alpha virt. eigenvalues --    3.90862   3.92088   4.01621   4.08027   4.32011
 Alpha virt. eigenvalues --    4.40520   4.45148   4.55073   4.56954   4.59591
 Alpha virt. eigenvalues --    5.27463   5.55339   6.00273   6.32503  24.73738
 Alpha virt. eigenvalues --   25.09101  25.12922  25.23447  25.26088  25.35954
 Alpha virt. eigenvalues --   51.64188
          Condensed to atoms (all electrons):
              1          2          3          4          5          6
     1  C   12.511774  -4.826710   3.598422  -3.092872   2.624770  -5.561846
     2  C   -4.826710  10.933735  -4.230815   4.095678  -4.321371   4.418976
     3  C    3.598422  -4.230815  10.408966  -4.665142   4.828779  -4.048216
     4  C   -3.092872   4.095678  -4.665142  12.112747  -7.717802   5.397660
     5  C    2.624770  -4.321371   4.828779  -7.717802  18.577367  -8.311915
     6  C   -5.561846   4.418976  -4.048216   5.397660  -8.311915  14.830395
     7  H    0.085484  -0.213974   0.574017  -0.230139   0.120300  -0.052870
     8  H   -0.030638   0.104387  -0.262234   0.704814  -0.425714   0.186726
     9  H    0.000924  -0.080305   0.138467  -0.348603   0.913534  -0.372529
    10  H    0.677667  -0.161064   0.099906  -0.058376   0.085894  -0.381835
    11  H   -0.269393   0.584968  -0.242275   0.085781  -0.049711   0.166780
    12  O    0.131692  -0.018092   0.025766   0.043570  -0.613095   0.268871
    13  H   -0.158442   0.009522  -0.004463  -0.004515   0.086900   0.076646
              7          8          9         10         11         12
     1  C    0.085484  -0.030638   0.000924   0.677667  -0.269393   0.131692
     2  C   -0.213974   0.104387  -0.080305  -0.161064   0.584968  -0.018092
     3  C    0.574017  -0.262234   0.138467   0.099906  -0.242275   0.025766
     4  C   -0.230139   0.704814  -0.348603  -0.058376   0.085781   0.043570
     5  C    0.120300  -0.425714   0.913534   0.085894  -0.049711  -0.613095
     6  C   -0.052870   0.186726  -0.372529  -0.381835   0.166780   0.268871
     7  H    0.570755  -0.017736   0.002966   0.000387  -0.014395   0.000613
     8  H   -0.017736   0.583223  -0.028300   0.000436   0.000013  -0.000220
     9  H    0.002966  -0.028300   0.577203   0.000405   0.000146  -0.034148
    10  H    0.000387   0.000436   0.000405   0.612244  -0.019385  -0.019897
    11  H   -0.014395   0.000013   0.000146  -0.019385   0.573719  -0.002680
    12  O    0.000613  -0.000220  -0.034148  -0.019897  -0.002680   8.229489
    13  H    0.000025  -0.000043   0.004232   0.002930   0.000959   0.229748
             13
     1  C   -0.158442
     2  C    0.009522
     3  C   -0.004463
     4  C   -0.004515
     5  C    0.086900
     6  C    0.076646
     7  H    0.000025
     8  H   -0.000043
     9  H    0.004232
    10  H    0.002930
    11  H    0.000959
    12  O    0.229748
    13  H    0.502379
 Mulliken atomic charges:
              1
     1  C    0.309168
     2  C   -0.294935
     3  C   -0.221178
     4  C   -0.322800
     5  C    0.202065
     6  C   -0.616843
     7  H    0.174566
     8  H    0.185286
     9  H    0.226006
    10  H    0.160689
    11  H    0.185473
    12  O   -0.241617
    13  H    0.254122
 Sum of Mulliken atomic charges =   0.00000
 Mulliken charges with hydrogens summed into heavy atoms:
              1
     1  C    0.469856
     2  C   -0.109463
     3  C   -0.046612
     4  C   -0.137514
     5  C    0.428071
     6  C   -0.616843
    12  O    0.012505
 Sum of Mulliken charges with hydrogens summed into heavy atoms =   0.00000
 Electronic spatial extent (au):  <R**2>=            668.3189
 Charge=              0.0000 electrons
 Dipole moment (field-independent basis, Debye):
    X=             -1.3855    Y=             -0.1734    Z=              0.0000  Tot=              1.3963
 Quadrupole moment (field-independent basis, Debye-Ang):
   XX=            -36.2286   YY=            -39.0024   ZZ=            -46.1648
   XY=             -4.5304   XZ=              0.0000   YZ=              0.0000
 Traceless Quadrupole moment (field-independent basis, Debye-Ang):
   XX=              4.2367   YY=              1.4629   ZZ=             -5.6996
   XY=             -4.5304   XZ=              0.0000   YZ=              0.0000
 Octapole moment (field-independent basis, Debye-Ang**2):
  XXX=             -0.6437  YYY=              5.5631  ZZZ=              0.0000  XYY=            -13.2248
  XXY=              5.9742  XXZ=              0.0000  XZZ=             -0.1525  YZZ=              5.8239
  YYZ=              0.0000  XYZ=              0.0000
 Hexadecapole moment (field-independent basis, Debye-Ang**3):
 XXXX=           -282.3069 YYYY=           -503.5323 ZZZZ=            -55.0409 XXXY=             -0.9052
 XXXZ=              0.0000 YYYX=            -35.8112 YYYZ=              0.0000 ZZZX=              0.0000
 ZZZY=              0.0000 XXYY=           -121.9341 XXZZ=            -68.0138 YYZZ=           -108.6040
 XXYZ=              0.0000 YYXZ=              0.0000 ZZXY=              0.2803
 N-N= 2.711327879571D+02 E-N=-1.257719800002D+03  KE= 3.065261726071D+02
 Symmetry A'   KE= 2.954807854505D+02
 Symmetry A"   KE= 1.104538715654D+01
 No NMR shielding tensors so no spin-rotation constants.
 Leave Link  601 at Fri Dec  3 14:37:53 2021, MaxMem=  498073600 cpu:       2.2
 (Enter /apps/software//g09/l9999.exe)
 1\1\GINC-DLT01\SP\RMP2-FC\6-311++G(d,p)\C6H6O1\ITAMAR\03-Dec-2021\0\\#
 P MP2/6-311++G** DENSITY=MP2\\X=OH\\0,1\C,0,-1.203937,0.231932,0.\C,0,
 -1.18789,-1.162126,0.\C,0,0.020269,-1.855253,0.\C,0,1.218336,-1.138884
 ,0.\C,0,1.215468,0.252074,0.\C,0,0.,0.938451,0.\H,0,0.029635,-2.938553
 ,0.\H,0,2.165288,-1.667106,0.\H,0,2.138563,0.819051,0.\H,0,-2.148683,0
 .768176,0.\H,0,-2.127082,-1.703895,0.\O,0,0.051348,2.307369,0.\H,0,-0.
 841975,2.666215,0.\\Version=EM64L-G09RevA.02\State=1-A'\HF=-305.638402
 4\MP2=-306.6660621\RMSD=8.018e-09\Dipole=-0.5450979,-0.0682105,0.\Quad
 rupole=3.1498675,1.0876126,-4.2374801,-3.3682168,0.,0.\PG=CS [SG(C6H6O
 1)]\\@


 BREAD HAS TO MOLD IN ORDER TO GET PENICILLIN.
          -- JERRY BOATZ
 Job cpu time:  0 days  0 hours  8 minutes 37.4 seconds.
 File lengths (MBytes):  RWF=     20 Int=      0 D2E=      0 Chk=      4 Scr=      1
 Normal termination of Gaussian 09 at Fri Dec  3 14:37:53 2021.
