X=CCH                                                                   
SP        RMP2-FC                                                     6-311++G(d,p)       
Number of atoms                            I               14
Info1-9                                    I   N=           9
          25          23           0           0           0         110
           1           2           1
Charge                                     I                0
Multiplicity                               I                1
Number of electrons                        I               54
Number of alpha electrons                  I               27
Number of beta electrons                   I               27
Number of basis functions                  I              218
Number of independent functions            I              217
Number of point charges in /Mol/           I                0
Number of translation vectors              I                0
Atomic numbers                             I   N=          14
           6           6           6           6           6           6
           6           1           1           1           1           1
           6           1
Nuclear charges                            R   N=          14
  6.00000000E+00  6.00000000E+00  6.00000000E+00  6.00000000E+00  6.00000000E+00
  6.00000000E+00  6.00000000E+00  1.00000000E+00  1.00000000E+00  1.00000000E+00
  1.00000000E+00  1.00000000E+00  6.00000000E+00  1.00000000E+00
Current cartesian coordinates              R   N=          42
  1.15084321E-03 -4.17564280E+00  5.11509653E-16 -2.27921948E+00 -2.85396834E+00
  7.02905081E-17 -2.28801426E+00 -2.25926208E-01 -2.52629212E-16  1.77592369E-17
  1.12213261E+00 -1.37421624E-16  2.28848480E+00 -2.24815049E-01  3.07886674E-16
  2.28084464E+00 -2.85291765E+00  6.28800407E-16 -9.16517174E-04  3.82100167E+00
 -4.68050000E-16  4.05616675E+00  8.07648162E-01  3.97999358E-16  4.05862718E+00
 -3.87107375E+00  9.71278888E-16  1.62705420E-03 -6.22417396E+00  7.62440674E-16
 -4.05651824E+00 -3.87297670E+00 -2.26480452E-17 -4.05607227E+00  8.05866150E-01
 -5.95586333E-16 -3.01222346E-03  6.09823883E+00 -7.47187823E-16  2.66451385E-04
  8.10608229E+00 -9.92676041E-16
Force Field                                I                0
Int Atom Types                             I   N=          14
           0           0           0           0           0           0
           0           0           0           0           0           0
           0           0
MM charges                                 R   N=          14
  0.00000000E+00  0.00000000E+00  0.00000000E+00  0.00000000E+00  0.00000000E+00
  0.00000000E+00  0.00000000E+00  0.00000000E+00  0.00000000E+00  0.00000000E+00
  0.00000000E+00  0.00000000E+00  0.00000000E+00  0.00000000E+00
Integer atomic weights                     I   N=          14
          12          12          12          12          12          12
          12           1           1           1           1           1
          12           1
Real atomic weights                        R   N=          14
  1.20000000E+01  1.20000000E+01  1.20000000E+01  1.20000000E+01  1.20000000E+01
  1.20000000E+01  1.20000000E+01  1.00782504E+00  1.00782504E+00  1.00782504E+00
  1.00782504E+00  1.00782504E+00  1.20000000E+01  1.00782504E+00
Atom fragment info                         I   N=          14
           0           0           0           0           0           0
           0           0           0           0           0           0
           0           0
Atom residue num                           I   N=          14
           0           0           0           0           0           0
           0           0           0           0           0           0
           0           0
Nuclear spins                              I   N=          14
           0           0           0           0           0           0
           0           1           1           1           1           1
           0           1
Nuclear ZEff                               R   N=          14
 -3.60000000E+00 -3.60000000E+00 -3.60000000E+00 -3.60000000E+00 -3.60000000E+00
 -3.60000000E+00 -3.60000000E+00 -1.00000000E+00 -1.00000000E+00 -1.00000000E+00
 -1.00000000E+00 -1.00000000E+00 -3.60000000E+00 -1.00000000E+00
Nuclear QMom                               R   N=          14
  0.00000000E+00  0.00000000E+00  0.00000000E+00  0.00000000E+00  0.00000000E+00
  0.00000000E+00  0.00000000E+00  0.00000000E+00  0.00000000E+00  0.00000000E+00
  0.00000000E+00  0.00000000E+00  0.00000000E+00  0.00000000E+00
Nuclear GFac                               R   N=          14
  0.00000000E+00  0.00000000E+00  0.00000000E+00  0.00000000E+00  0.00000000E+00
  0.00000000E+00  0.00000000E+00  2.79284600E+00  2.79284600E+00  2.79284600E+00
  2.79284600E+00  2.79284600E+00  0.00000000E+00  2.79284600E+00
MicOpt                                     I   N=          14
          -1          -1          -1          -1          -1          -1
          -1          -1          -1          -1          -1          -1
          -1          -1
Number of contracted shells                I               78
Number of primitive shells                 I              146
Pure/Cartesian d shells                    I                0
Pure/Cartesian f shells                    I                0
Highest angular momentum                   I                2
Largest degree of contraction              I                6
Shell types                                I   N=          78
           0          -1          -1          -1          -1          -2
           0          -1          -1          -1          -1          -2
           0          -1          -1          -1          -1          -2
           0          -1          -1          -1          -1          -2
           0          -1          -1          -1          -1          -2
           0          -1          -1          -1          -1          -2
           0          -1          -1          -1          -1          -2
           0           0           0           0           1           0
           0           0           0           1           0           0
           0           0           1           0           0           0
           0           1           0           0           0           0
           1           0          -1          -1          -1          -1
          -2           0           0           0           0           1
Number of primitives per shell             I   N=          78
           6           3           1           1           1           1
           6           3           1           1           1           1
           6           3           1           1           1           1
           6           3           1           1           1           1
           6           3           1           1           1           1
           6           3           1           1           1           1
           6           3           1           1           1           1
           3           1           1           1           1           3
           1           1           1           1           3           1
           1           1           1           3           1           1
           1           1           3           1           1           1
           1           6           3           1           1           1
           1           3           1           1           1           1
Shell to atom map                          I   N=          78
           1           1           1           1           1           1
           2           2           2           2           2           2
           3           3           3           3           3           3
           4           4           4           4           4           4
           5           5           5           5           5           5
           6           6           6           6           6           6
           7           7           7           7           7           7
           8           8           8           8           8           9
           9           9           9           9          10          10
          10          10          10          11          11          11
          11          11          12          12          12          12
          12          13          13          13          13          13
          13          14          14          14          14          14
Primitive exponents                        R   N=         146
  4.56324000E+03  6.82024000E+02  1.54973000E+02  4.44553000E+01  1.30290000E+01
  1.82773000E+00  2.09642000E+01  4.80331000E+00  1.45933000E+00  4.83456000E-01
  1.45585000E-01  4.38000000E-02  6.26000000E-01  4.56324000E+03  6.82024000E+02
  1.54973000E+02  4.44553000E+01  1.30290000E+01  1.82773000E+00  2.09642000E+01
  4.80331000E+00  1.45933000E+00  4.83456000E-01  1.45585000E-01  4.38000000E-02
  6.26000000E-01  4.56324000E+03  6.82024000E+02  1.54973000E+02  4.44553000E+01
  1.30290000E+01  1.82773000E+00  2.09642000E+01  4.80331000E+00  1.45933000E+00
  4.83456000E-01  1.45585000E-01  4.38000000E-02  6.26000000E-01  4.56324000E+03
  6.82024000E+02  1.54973000E+02  4.44553000E+01  1.30290000E+01  1.82773000E+00
  2.09642000E+01  4.80331000E+00  1.45933000E+00  4.83456000E-01  1.45585000E-01
  4.38000000E-02  6.26000000E-01  4.56324000E+03  6.82024000E+02  1.54973000E+02
  4.44553000E+01  1.30290000E+01  1.82773000E+00  2.09642000E+01  4.80331000E+00
  1.45933000E+00  4.83456000E-01  1.45585000E-01  4.38000000E-02  6.26000000E-01
  4.56324000E+03  6.82024000E+02  1.54973000E+02  4.44553000E+01  1.30290000E+01
  1.82773000E+00  2.09642000E+01  4.80331000E+00  1.45933000E+00  4.83456000E-01
  1.45585000E-01  4.38000000E-02  6.26000000E-01  4.56324000E+03  6.82024000E+02
  1.54973000E+02  4.44553000E+01  1.30290000E+01  1.82773000E+00  2.09642000E+01
  4.80331000E+00  1.45933000E+00  4.83456000E-01  1.45585000E-01  4.38000000E-02
  6.26000000E-01  3.38650000E+01  5.09479000E+00  1.15879000E+00  3.25840000E-01
  1.02741000E-01  3.60000000E-02  7.50000000E-01  3.38650000E+01  5.09479000E+00
  1.15879000E+00  3.25840000E-01  1.02741000E-01  3.60000000E-02  7.50000000E-01
  3.38650000E+01  5.09479000E+00  1.15879000E+00  3.25840000E-01  1.02741000E-01
  3.60000000E-02  7.50000000E-01  3.38650000E+01  5.09479000E+00  1.15879000E+00
  3.25840000E-01  1.02741000E-01  3.60000000E-02  7.50000000E-01  3.38650000E+01
  5.09479000E+00  1.15879000E+00  3.25840000E-01  1.02741000E-01  3.60000000E-02
  7.50000000E-01  4.56324000E+03  6.82024000E+02  1.54973000E+02  4.44553000E+01
  1.30290000E+01  1.82773000E+00  2.09642000E+01  4.80331000E+00  1.45933000E+00
  4.83456000E-01  1.45585000E-01  4.38000000E-02  6.26000000E-01  3.38650000E+01
  5.09479000E+00  1.15879000E+00  3.25840000E-01  1.02741000E-01  3.60000000E-02
  7.50000000E-01
Contraction coefficients                   R   N=         146
  1.96665025E-03  1.52306019E-02  7.61269097E-02  2.60801033E-01  6.16462078E-01
  2.21006028E-01  1.14660081E-01  9.19999648E-01 -3.03068213E-03  1.00000000E+00
  1.00000000E+00  1.00000000E+00  1.00000000E+00  1.96665025E-03  1.52306019E-02
  7.61269097E-02  2.60801033E-01  6.16462078E-01  2.21006028E-01  1.14660081E-01
  9.19999648E-01 -3.03068213E-03  1.00000000E+00  1.00000000E+00  1.00000000E+00
  1.00000000E+00  1.96665025E-03  1.52306019E-02  7.61269097E-02  2.60801033E-01
  6.16462078E-01  2.21006028E-01  1.14660081E-01  9.19999648E-01 -3.03068213E-03
  1.00000000E+00  1.00000000E+00  1.00000000E+00  1.00000000E+00  1.96665025E-03
  1.52306019E-02  7.61269097E-02  2.60801033E-01  6.16462078E-01  2.21006028E-01
  1.14660081E-01  9.19999648E-01 -3.03068213E-03  1.00000000E+00  1.00000000E+00
  1.00000000E+00  1.00000000E+00  1.96665025E-03  1.52306019E-02  7.61269097E-02
  2.60801033E-01  6.16462078E-01  2.21006028E-01  1.14660081E-01  9.19999648E-01
 -3.03068213E-03  1.00000000E+00  1.00000000E+00  1.00000000E+00  1.00000000E+00
  1.96665025E-03  1.52306019E-02  7.61269097E-02  2.60801033E-01  6.16462078E-01
  2.21006028E-01  1.14660081E-01  9.19999648E-01 -3.03068213E-03  1.00000000E+00
  1.00000000E+00  1.00000000E+00  1.00000000E+00  1.96665025E-03  1.52306019E-02
  7.61269097E-02  2.60801033E-01  6.16462078E-01  2.21006028E-01  1.14660081E-01
  9.19999648E-01 -3.03068213E-03  1.00000000E+00  1.00000000E+00  1.00000000E+00
  1.00000000E+00  2.54938145E-02  1.90373109E-01  8.52161486E-01  1.00000000E+00
  1.00000000E+00  1.00000000E+00  1.00000000E+00  2.54938145E-02  1.90373109E-01
  8.52161486E-01  1.00000000E+00  1.00000000E+00  1.00000000E+00  1.00000000E+00
  2.54938145E-02  1.90373109E-01  8.52161486E-01  1.00000000E+00  1.00000000E+00
  1.00000000E+00  1.00000000E+00  2.54938145E-02  1.90373109E-01  8.52161486E-01
  1.00000000E+00  1.00000000E+00  1.00000000E+00  1.00000000E+00  2.54938145E-02
  1.90373109E-01  8.52161486E-01  1.00000000E+00  1.00000000E+00  1.00000000E+00
  1.00000000E+00  1.96665025E-03  1.52306019E-02  7.61269097E-02  2.60801033E-01
  6.16462078E-01  2.21006028E-01  1.14660081E-01  9.19999648E-01 -3.03068213E-03
  1.00000000E+00  1.00000000E+00  1.00000000E+00  1.00000000E+00  2.54938145E-02
  1.90373109E-01  8.52161486E-01  1.00000000E+00  1.00000000E+00  1.00000000E+00
  1.00000000E+00
P(S=P) Contraction coefficients            R   N=         146
  0.00000000E+00  0.00000000E+00  0.00000000E+00  0.00000000E+00  0.00000000E+00
  0.00000000E+00  4.02486927E-02  2.37593957E-01  8.15853851E-01  1.00000000E+00
  1.00000000E+00  1.00000000E+00  0.00000000E+00  0.00000000E+00  0.00000000E+00
  0.00000000E+00  0.00000000E+00  0.00000000E+00  0.00000000E+00  4.02486927E-02
  2.37593957E-01  8.15853851E-01  1.00000000E+00  1.00000000E+00  1.00000000E+00
  0.00000000E+00  0.00000000E+00  0.00000000E+00  0.00000000E+00  0.00000000E+00
  0.00000000E+00  0.00000000E+00  4.02486927E-02  2.37593957E-01  8.15853851E-01
  1.00000000E+00  1.00000000E+00  1.00000000E+00  0.00000000E+00  0.00000000E+00
  0.00000000E+00  0.00000000E+00  0.00000000E+00  0.00000000E+00  0.00000000E+00
  4.02486927E-02  2.37593957E-01  8.15853851E-01  1.00000000E+00  1.00000000E+00
  1.00000000E+00  0.00000000E+00  0.00000000E+00  0.00000000E+00  0.00000000E+00
  0.00000000E+00  0.00000000E+00  0.00000000E+00  4.02486927E-02  2.37593957E-01
  8.15853851E-01  1.00000000E+00  1.00000000E+00  1.00000000E+00  0.00000000E+00
  0.00000000E+00  0.00000000E+00  0.00000000E+00  0.00000000E+00  0.00000000E+00
  0.00000000E+00  4.02486927E-02  2.37593957E-01  8.15853851E-01  1.00000000E+00
  1.00000000E+00  1.00000000E+00  0.00000000E+00  0.00000000E+00  0.00000000E+00
  0.00000000E+00  0.00000000E+00  0.00000000E+00  0.00000000E+00  4.02486927E-02
  2.37593957E-01  8.15853851E-01  1.00000000E+00  1.00000000E+00  1.00000000E+00
  0.00000000E+00  0.00000000E+00  0.00000000E+00  0.00000000E+00  0.00000000E+00
  0.00000000E+00  0.00000000E+00  0.00000000E+00  0.00000000E+00  0.00000000E+00
  0.00000000E+00  0.00000000E+00  0.00000000E+00  0.00000000E+00  0.00000000E+00
  0.00000000E+00  0.00000000E+00  0.00000000E+00  0.00000000E+00  0.00000000E+00
  0.00000000E+00  0.00000000E+00  0.00000000E+00  0.00000000E+00  0.00000000E+00
  0.00000000E+00  0.00000000E+00  0.00000000E+00  0.00000000E+00  0.00000000E+00
  0.00000000E+00  0.00000000E+00  0.00000000E+00  0.00000000E+00  0.00000000E+00
  0.00000000E+00  0.00000000E+00  0.00000000E+00  0.00000000E+00  0.00000000E+00
  0.00000000E+00  0.00000000E+00  4.02486927E-02  2.37593957E-01  8.15853851E-01
  1.00000000E+00  1.00000000E+00  1.00000000E+00  0.00000000E+00  0.00000000E+00
  0.00000000E+00  0.00000000E+00  0.00000000E+00  0.00000000E+00  0.00000000E+00
  0.00000000E+00
Coordinates of each shell                  R   N=         234
  1.15051278E-03 -4.17564262E+00 -5.14404067E-32  1.15051278E-03 -4.17564262E+00
 -5.14404067E-32  1.15051278E-03 -4.17564262E+00 -5.14404067E-32  1.15051278E-03
 -4.17564262E+00 -5.14404067E-32  1.15051278E-03 -4.17564262E+00 -5.14404067E-32
  1.15051278E-03 -4.17564262E+00 -5.14404067E-32 -2.27921972E+00 -2.85396802E+00
 -9.13649761E-32 -2.27921972E+00 -2.85396802E+00 -9.13649761E-32 -2.27921972E+00
 -2.85396802E+00 -9.13649761E-32 -2.27921972E+00 -2.85396802E+00 -9.13649761E-32
 -2.27921972E+00 -2.85396802E+00 -9.13649761E-32 -2.27921972E+00 -2.85396802E+00
 -9.13649761E-32 -2.28801435E+00 -2.25925890E-01 -5.91886600E-32 -2.28801435E+00
 -2.25925890E-01 -5.91886600E-32 -2.28801435E+00 -2.25925890E-01 -5.91886600E-32
 -2.28801435E+00 -2.25925890E-01 -5.91886600E-32 -2.28801435E+00 -2.25925890E-01
 -5.91886600E-32 -2.28801435E+00 -2.25925890E-01 -5.91886600E-32 -1.68350735E-32
  1.12213278E+00  1.38313544E-32 -1.68350735E-32  1.12213278E+00  1.38313544E-32
 -1.68350735E-32  1.12213278E+00  1.38313544E-32 -1.68350735E-32  1.12213278E+00
  1.38313544E-32 -1.68350735E-32  1.12213278E+00  1.38313544E-32 -1.68350735E-32
  1.12213278E+00  1.38313544E-32  2.28848472E+00 -2.24815017E-01  5.36444449E-32
  2.28848472E+00 -2.24815017E-01  5.36444449E-32  2.28848472E+00 -2.24815017E-01
  5.36444449E-32  2.28848472E+00 -2.24815017E-01  5.36444449E-32  2.28848472E+00
 -2.24815017E-01  5.36444449E-32  2.28848472E+00 -2.24815017E-01  5.36444449E-32
  2.28084439E+00 -2.85291762E+00  2.10622307E-32  2.28084439E+00 -2.85291762E+00
  2.10622307E-32  2.28084439E+00 -2.85291762E+00  2.10622307E-32  2.28084439E+00
 -2.85291762E+00  2.10622307E-32  2.28084439E+00 -2.85291762E+00  2.10622307E-32
  2.28084439E+00 -2.85291762E+00  2.10622307E-32 -9.16348840E-04  3.82100185E+00
  4.70748943E-32 -9.16348840E-04  3.82100185E+00  4.70748943E-32 -9.16348840E-04
  3.82100185E+00  4.70748943E-32 -9.16348840E-04  3.82100185E+00  4.70748943E-32
 -9.16348840E-04  3.82100185E+00  4.70748943E-32 -9.16348840E-04  3.82100185E+00
  4.70748943E-32  4.05616673E+00  8.07648084E-01  1.09947261E-31  4.05616673E+00
  8.07648084E-01  1.09947261E-31  4.05616673E+00  8.07648084E-01  1.09947261E-31
  4.05616673E+00  8.07648084E-01  1.09947261E-31  4.05616673E+00  8.07648084E-01
  1.09947261E-31  4.05862687E+00 -3.87107383E+00  5.23382082E-32  4.05862687E+00
 -3.87107383E+00  5.23382082E-32  4.05862687E+00 -3.87107383E+00  5.23382082E-32
  4.05862687E+00 -3.87107383E+00  5.23382082E-32  4.05862687E+00 -3.87107383E+00
  5.23382082E-32  1.62659600E-03 -6.22417378E+00 -7.66787664E-32  1.62659600E-03
 -6.22417378E+00 -7.66787664E-32  1.62659600E-03 -6.22417378E+00 -7.66787664E-32
  1.62659600E-03 -6.22417378E+00 -7.66787664E-32  1.62659600E-03 -6.22417378E+00
 -7.66787664E-32 -4.05651855E+00 -3.87297627E+00 -1.47739021E-31 -4.05651855E+00
 -3.87297627E+00 -1.47739021E-31 -4.05651855E+00 -3.87297627E+00 -1.47739021E-31
 -4.05651855E+00 -3.87297627E+00 -1.47739021E-31 -4.05651855E+00 -3.87297627E+00
 -1.47739021E-31 -4.05607229E+00  8.05866578E-01 -9.00568293E-32 -4.05607229E+00
  8.05866578E-01 -9.00568293E-32 -4.05607229E+00  8.05866578E-01 -9.00568293E-32
 -4.05607229E+00  8.05866578E-01 -9.00568293E-32 -4.05607229E+00  8.05866578E-01
 -9.00568293E-32 -3.01191309E-03  6.09823900E+00  7.50923497E-32 -3.01191309E-03
  6.09823900E+00  7.50923497E-32 -3.01191309E-03  6.09823900E+00  7.50923497E-32
 -3.01191309E-03  6.09823900E+00  7.50923497E-32 -3.01191309E-03  6.09823900E+00
  7.50923497E-32 -3.01191309E-03  6.09823900E+00  7.50923497E-32  2.66886989E-04
  8.10608247E+00  9.99217598E-32  2.66886989E-04  8.10608247E+00  9.99217598E-32
  2.66886989E-04  8.10608247E+00  9.99217598E-32  2.66886989E-04  8.10608247E+00
  9.99217598E-32  2.66886989E-04  8.10608247E+00  9.99217598E-32
Constraint Structure                       R   N=          42
  1.15051278E-03 -4.17564262E+00 -5.14404067E-32 -2.27921972E+00 -2.85396802E+00
 -9.13649761E-32 -2.28801435E+00 -2.25925890E-01 -5.91886600E-32 -1.68350735E-32
  1.12213278E+00  1.38313544E-32  2.28848472E+00 -2.24815017E-01  5.36444449E-32
  2.28084439E+00 -2.85291762E+00  2.10622307E-32 -9.16348840E-04  3.82100185E+00
  4.70748943E-32  4.05616673E+00  8.07648084E-01  1.09947261E-31  4.05862687E+00
 -3.87107383E+00  5.23382082E-32  1.62659600E-03 -6.22417378E+00 -7.66787664E-32
 -4.05651855E+00 -3.87297627E+00 -1.47739021E-31 -4.05607229E+00  8.05866578E-01
 -9.00568293E-32 -3.01191309E-03  6.09823900E+00  7.50923497E-32  2.66886989E-04
  8.10608247E+00  9.99217598E-32
Num ILSW                                   I              100
ILSW                                       I   N=         100
           0           0           0           0           2           0
           0           0           0           0           0          -1
           0           0           0           0           0           0
           0           0           0           0           0           0
           1           0           0           0           0           0
           0           0      100000           0          -1           0
           0           0           0           0           0           0
           0           0           0           1           0           0
           0           0           1           0           0           0
           0           0           4          40           0           0
           0           0           0           0           0           0
           0           0           0           0           0           0
           0           0           0           0           0           0
           0           0           0           0           0           0
           0           0           0           0           0           0
           0           0           0           0           0           0
           0           0           0           0
Num RLSW                                   I               40
RLSW                                       R   N=          40
  1.00000000E+00  1.00000000E+00  1.00000000E+00  1.00000000E+00  1.00000000E+00
  0.00000000E+00  0.00000000E+00  1.00000000E+00  0.00000000E+00  0.00000000E+00
  0.00000000E+00  0.00000000E+00  1.00000000E+00  0.00000000E+00  0.00000000E+00
  0.00000000E+00  0.00000000E+00  1.00000000E+00  0.00000000E+00  0.00000000E+00
  0.00000000E+00  0.00000000E+00  1.00000000E+00  0.00000000E+00  0.00000000E+00
  0.00000000E+00  0.00000000E+00  1.00000000E+00  0.00000000E+00  0.00000000E+00
  0.00000000E+00  0.00000000E+00  0.00000000E+00  0.00000000E+00  0.00000000E+00
  0.00000000E+00  0.00000000E+00  0.00000000E+00  1.00000000E+00  1.00000000E+00
MxBond                                     I                3
NBond                                      I   N=          14
           3           3           3           3           3           3
           2           1           1           1           1           1
           2           1
IBond                                      I   N=          42
           2           6          10           1           3          11
           2           4          12           3           5           7
           4           6           8           1           5           9
           4          13           0           5           0           0
           6           0           0           1           0           0
           2           0           0           3           0           0
           7          14           0          13           0           0
RBond                                      R   N=          42
  1.50000000E+00  1.50000000E+00  1.00000000E+00  1.50000000E+00  1.50000000E+00
  1.00000000E+00  1.50000000E+00  1.50000000E+00  1.00000000E+00  1.50000000E+00
  1.50000000E+00  1.50000000E+00  1.50000000E+00  1.50000000E+00  1.00000000E+00
  1.50000000E+00  1.50000000E+00  1.00000000E+00  1.50000000E+00  3.00000000E+00
  0.00000000E+00  1.00000000E+00  0.00000000E+00  0.00000000E+00  1.00000000E+00
  0.00000000E+00  0.00000000E+00  1.00000000E+00  0.00000000E+00  0.00000000E+00
  1.00000000E+00  0.00000000E+00  0.00000000E+00  1.00000000E+00  0.00000000E+00
  0.00000000E+00  3.00000000E+00  1.00000000E+00  0.00000000E+00  1.00000000E+00
  0.00000000E+00  0.00000000E+00
Virial Ratio                               R      2.001258275686309E+00
SCF Energy                                 R     -3.064471519046089E+02
MP2 Energy                                 R     -3.075318260677504E+02
Total Energy                               R     -3.075318260677504E+02
Post-SCF wavefunction norm                 R      1.188939121652026E+00
RMS Density                                R      8.798059533505160E-09
External E-field                           R   N=          35
  0.00000000E+00  0.00000000E+00  0.00000000E+00  0.00000000E+00  0.00000000E+00
  0.00000000E+00  0.00000000E+00  0.00000000E+00  0.00000000E+00  0.00000000E+00
  0.00000000E+00  0.00000000E+00  0.00000000E+00  0.00000000E+00  0.00000000E+00
  0.00000000E+00  0.00000000E+00  0.00000000E+00  0.00000000E+00  0.00000000E+00
  0.00000000E+00  0.00000000E+00  0.00000000E+00  0.00000000E+00  0.00000000E+00
  0.00000000E+00  0.00000000E+00  0.00000000E+00  0.00000000E+00  0.00000000E+00
  0.00000000E+00  0.00000000E+00  0.00000000E+00  0.00000000E+00  0.00000000E+00
IOpCl                                      I                0
IROHF                                      I                0
Alpha Orbital Energies                     R   N=         217
 -1.12695283E+01 -1.12508718E+01 -1.12508268E+01 -1.12489914E+01 -1.12462765E+01
 -1.12460051E+01 -1.12418870E+01 -1.12317006E+01 -1.17011010E+00 -1.06937319E+00
 -1.02794263E+00 -1.00020006E+00 -8.57351646E-01 -8.38729960E-01 -7.49682337E-01
 -7.06438419E-01 -6.68462396E-01 -6.40207143E-01 -6.12716229E-01 -5.98961377E-01
 -5.25674093E-01 -5.21482174E-01 -5.08460800E-01 -4.30820429E-01 -3.99357091E-01
 -3.47423971E-01 -3.21859897E-01  3.73182214E-02  4.55301232E-02  4.85183629E-02
  5.95795891E-02  6.92273833E-02  7.75501932E-02  8.14628194E-02  1.03765977E-01
  1.18780985E-01  1.19309429E-01  1.29192391E-01  1.31189474E-01  1.50192331E-01
  1.53180811E-01  1.56404008E-01  1.59375685E-01  1.70687891E-01  1.81594809E-01
  1.82039122E-01  1.84325959E-01  1.94533309E-01  2.02683189E-01  2.04703146E-01
  2.11305728E-01  2.13324563E-01  2.17615908E-01  2.21693307E-01  2.25149620E-01
  2.26106505E-01  2.35326752E-01  2.49258844E-01  2.61036446E-01  2.74570418E-01
  2.76932015E-01  2.84334202E-01  2.91554975E-01  3.04911928E-01  3.30310167E-01
  3.31740777E-01  3.44460783E-01  3.54741929E-01  3.58117116E-01  3.86364072E-01
  4.05463973E-01  4.09938100E-01  4.11159150E-01  4.33731520E-01  4.41242758E-01
  4.55387583E-01  4.96567114E-01  5.03846695E-01  5.37752907E-01  5.59931362E-01
  6.05852726E-01  6.68679068E-01  6.78699430E-01  7.06429591E-01  7.15607749E-01
  7.23564979E-01  7.27121607E-01  7.31007243E-01  7.35038369E-01  7.49366853E-01
  7.67713673E-01  7.82552383E-01  8.11273990E-01  8.13557050E-01  8.29575588E-01
  8.43098620E-01  8.49354587E-01  8.81658309E-01  8.87394763E-01  8.95426776E-01
  9.10338924E-01  9.21338174E-01  9.49769359E-01  9.71824447E-01  9.80747072E-01
  9.97767565E-01  1.00975672E+00  1.02987945E+00  1.04961987E+00  1.06818899E+00
  1.07614947E+00  1.10483202E+00  1.11875921E+00  1.13071339E+00  1.15152253E+00
  1.19625852E+00  1.21063738E+00  1.22484340E+00  1.23453239E+00  1.26021214E+00
  1.30380680E+00  1.31360568E+00  1.35066595E+00  1.35657860E+00  1.37710891E+00
  1.42374937E+00  1.44166675E+00  1.46583476E+00  1.53671542E+00  1.61615341E+00
  1.63109254E+00  1.74504374E+00  1.75143714E+00  1.77994854E+00  1.78151874E+00
  1.81088262E+00  1.81891911E+00  1.84196175E+00  1.86617256E+00  1.86959542E+00
  1.89885864E+00  1.91241572E+00  1.92391047E+00  1.95175223E+00  2.00165759E+00
  2.04772824E+00  2.07682614E+00  2.08142878E+00  2.09757212E+00  2.10820025E+00
  2.17239483E+00  2.22276565E+00  2.22696281E+00  2.23699056E+00  2.23992961E+00
  2.24166837E+00  2.27216510E+00  2.32242948E+00  2.32918023E+00  2.37109374E+00
  2.37857920E+00  2.45358624E+00  2.57116439E+00  2.57675574E+00  2.65911067E+00
  2.74609549E+00  2.77422597E+00  2.81647527E+00  2.82703025E+00  2.87576139E+00
  2.93967746E+00  2.96204350E+00  2.97210874E+00  3.00967442E+00  3.01104699E+00
  3.01377591E+00  3.03685724E+00  3.05809883E+00  3.06710137E+00  3.06791193E+00
  3.09805228E+00  3.13137176E+00  3.17792864E+00  3.18402972E+00  3.24195899E+00
  3.26710416E+00  3.28645928E+00  3.30803217E+00  3.35632123E+00  3.39494397E+00
  3.43744860E+00  3.47443105E+00  3.48186876E+00  3.57903438E+00  3.60534969E+00
  3.75178421E+00  3.76443164E+00  3.82398745E+00  3.90854464E+00  3.93907658E+00
  3.97509192E+00  4.03998223E+00  4.13205565E+00  4.39893990E+00  4.44507185E+00
  4.56691151E+00  4.56872802E+00  4.69355522E+00  5.26281720E+00  2.46689006E+01
  2.49114059E+01  2.51121994E+01  2.51156978E+01  2.52150472E+01  2.52551142E+01
  2.53473968E+01  2.63294558E+01
Alpha MO coefficients                      R   N=       47306
 -2.41640666E-04 -1.97113325E-04  1.16734768E-08 -4.50649596E-06  0.00000000E+00
 -3.40174727E-05 -6.35967619E-08  2.68858776E-06  0.00000000E+00  1.47559138E-04
  8.54784859E-08  7.21114323E-05  0.00000000E+00 -3.22579109E-03 -2.82779985E-08
 -1.13692377E-03  0.00000000E+00 -1.50420591E-05  0.00000000E+00  0.00000000E+00
  1.31660263E-05 -1.94464628E-08  3.12559712E-04  2.58319529E-04 -1.29175158E-05
 -2.38654417E-06  0.00000000E+00 -9.00162536E-06  3.24966221E-05  2.20531287E-05
  0.00000000E+00 -1.49517605E-04 -4.57125884E-05 -6.43384963E-05  0.00000000E+00
  7.38376460E-03  3.78220949E-04  1.21029126E-03  0.00000000E+00 -8.83208870E-06
  0.00000000E+00  0.00000000E+00  1.72984763E-06  4.50063781E-05  1.71703423E-02
  1.41672437E-02  1.87356977E-04  1.11370788E-04  0.00000000E+00  3.90468129E-04
  6.90923296E-05  3.63940502E-05  0.00000000E+00  2.81413393E-04  2.42509813E-04
 -1.78785581E-04  0.00000000E+00 -1.29898373E-02 -2.36698575E-03  2.06396370E-03