N6                                                                      
SP        RMP2-FC                                                     6-311++G(d,p)       
Number of atoms                            I                6
Info1-9                                    I   N=           9
          19          15           0           0           0         110
           1           2           1
Charge                                     I                0
Multiplicity                               I                1
Number of electrons                        I               42
Number of alpha electrons                  I               21
Number of beta electrons                   I               21
Number of basis functions                  I              132
Number of independent functions            I              132
Number of point charges in /Mol/           I                0
Number of translation vectors              I                0
Atomic numbers                             I   N=           6
           7           7           7           7           7           7
Nuclear charges                            R   N=           6
  7.00000000E+00  7.00000000E+00  7.00000000E+00  7.00000000E+00  7.00000000E+00
  7.00000000E+00
Current cartesian coordinates              R   N=          18
 -2.13978766E+00 -1.20494818E+00  3.44678803E-01 -2.13975291E+00  1.20500444E+00
 -3.44683842E-01  2.88463119E-05  2.41810112E+00  1.76059485E-04  2.13979081E+00
  1.20488960E+00  3.44862106E-01  2.13975795E+00 -1.20494586E+00 -3.44855807E-01
 -3.70351251E-05 -2.41810112E+00 -1.77319302E-04
Force Field                                I                0
Int Atom Types                             I   N=           6
           0           0           0           0           0           0
MM charges                                 R   N=           6
  0.00000000E+00  0.00000000E+00  0.00000000E+00  0.00000000E+00  0.00000000E+00
  0.00000000E+00
Integer atomic weights                     I   N=           6
          14          14          14          14          14          14
Real atomic weights                        R   N=           6
  1.40030740E+01  1.40030740E+01  1.40030740E+01  1.40030740E+01  1.40030740E+01
  1.40030740E+01
Atom fragment info                         I   N=           6
           0           0           0           0           0           0
Atom residue num                           I   N=           6
           0           0           0           0           0           0
Nuclear spins                              I   N=           6
           2           2           2           2           2           2
Nuclear ZEff                               R   N=           6
 -4.55000000E+00 -4.55000000E+00 -4.55000000E+00 -4.55000000E+00 -4.55000000E+00
 -4.55000000E+00
Nuclear QMom                               R   N=           6
  2.04400000E+00  2.04400000E+00  2.04400000E+00  2.04400000E+00  2.04400000E+00
  2.04400000E+00
Nuclear GFac                               R   N=           6
  4.03761000E-01  4.03761000E-01  4.03761000E-01  4.03761000E-01  4.03761000E-01
  4.03761000E-01
MicOpt                                     I   N=           6
          -1          -1          -1          -1          -1          -1
Number of contracted shells                I               36
Number of primitive shells                 I               78
Pure/Cartesian d shells                    I                0
Pure/Cartesian f shells                    I                0
Highest angular momentum                   I                2
Largest degree of contraction              I                6
Shell types                                I   N=          36
           0          -1          -1          -1          -1          -2
           0          -1          -1          -1          -1          -2
           0          -1          -1          -1          -1          -2
           0          -1          -1          -1          -1          -2
           0          -1          -1          -1          -1          -2
           0          -1          -1          -1          -1          -2
Number of primitives per shell             I   N=          36
           6           3           1           1           1           1
           6           3           1           1           1           1
           6           3           1           1           1           1
           6           3           1           1           1           1
           6           3           1           1           1           1
           6           3           1           1           1           1
Shell to atom map                          I   N=          36
           1           1           1           1           1           1
           2           2           2           2           2           2
           3           3           3           3           3           3
           4           4           4           4           4           4
           5           5           5           5           5           5
           6           6           6           6           6           6
Primitive exponents                        R   N=          78
  6.29348000E+03  9.49044000E+02  2.18776000E+02  6.36916000E+01  1.88282000E+01
  2.72023000E+00  3.06331000E+01  7.02614000E+00  2.11205000E+00  6.84009000E-01
  2.00878000E-01  6.39000000E-02  9.13000000E-01  6.29348000E+03  9.49044000E+02
  2.18776000E+02  6.36916000E+01  1.88282000E+01  2.72023000E+00  3.06331000E+01
  7.02614000E+00  2.11205000E+00  6.84009000E-01  2.00878000E-01  6.39000000E-02
  9.13000000E-01  6.29348000E+03  9.49044000E+02  2.18776000E+02  6.36916000E+01
  1.88282000E+01  2.72023000E+00  3.06331000E+01  7.02614000E+00  2.11205000E+00
  6.84009000E-01  2.00878000E-01  6.39000000E-02  9.13000000E-01  6.29348000E+03
  9.49044000E+02  2.18776000E+02  6.36916000E+01  1.88282000E+01  2.72023000E+00
  3.06331000E+01  7.02614000E+00  2.11205000E+00  6.84009000E-01  2.00878000E-01
  6.39000000E-02  9.13000000E-01  6.29348000E+03  9.49044000E+02  2.18776000E+02
  6.36916000E+01  1.88282000E+01  2.72023000E+00  3.06331000E+01  7.02614000E+00
  2.11205000E+00  6.84009000E-01  2.00878000E-01  6.39000000E-02  9.13000000E-01
  6.29348000E+03  9.49044000E+02  2.18776000E+02  6.36916000E+01  1.88282000E+01
  2.72023000E+00  3.06331000E+01  7.02614000E+00  2.11205000E+00  6.84009000E-01
  2.00878000E-01  6.39000000E-02  9.13000000E-01
Contraction coefficients                   R   N=          78
  1.96978815E-03  1.49612859E-02  7.35005308E-02  2.48936766E-01  6.02459433E-01
  2.56201759E-01  1.11906080E-01  9.21666655E-01 -2.56919183E-03  1.00000000E+00
  1.00000000E+00  1.00000000E+00  1.00000000E+00  1.96978815E-03  1.49612859E-02
  7.35005308E-02  2.48936766E-01  6.02459433E-01  2.56201759E-01  1.11906080E-01
  9.21666655E-01 -2.56919183E-03  1.00000000E+00  1.00000000E+00  1.00000000E+00
  1.00000000E+00  1.96978815E-03  1.49612859E-02  7.35005308E-02  2.48936766E-01
  6.02459433E-01  2.56201759E-01  1.11906080E-01  9.21666655E-01 -2.56919183E-03
  1.00000000E+00  1.00000000E+00  1.00000000E+00  1.00000000E+00  1.96978815E-03
  1.49612859E-02  7.35005308E-02  2.48936766E-01  6.02459433E-01  2.56201759E-01
  1.11906080E-01  9.21666655E-01 -2.56919183E-03  1.00000000E+00  1.00000000E+00
  1.00000000E+00  1.00000000E+00  1.96978815E-03  1.49612859E-02  7.35005308E-02
  2.48936766E-01  6.02459433E-01  2.56201759E-01  1.11906080E-01  9.21666655E-01
 -2.56919183E-03  1.00000000E+00  1.00000000E+00  1.00000000E+00  1.00000000E+00
  1.96978815E-03  1.49612859E-02  7.35005308E-02  2.48936766E-01  6.02459433E-01
  2.56201759E-01  1.11906080E-01  9.21666655E-01 -2.56919183E-03  1.00000000E+00
  1.00000000E+00  1.00000000E+00  1.00000000E+00
P(S=P) Contraction coefficients            R   N=          78
  0.00000000E+00  0.00000000E+00  0.00000000E+00  0.00000000E+00  0.00000000E+00
  0.00000000E+00  3.83119186E-02  2.37403116E-01  8.17592398E-01  1.00000000E+00
  1.00000000E+00  1.00000000E+00  0.00000000E+00  0.00000000E+00  0.00000000E+00
  0.00000000E+00  0.00000000E+00  0.00000000E+00  0.00000000E+00  3.83119186E-02
  2.37403116E-01  8.17592398E-01  1.00000000E+00  1.00000000E+00  1.00000000E+00
  0.00000000E+00  0.00000000E+00  0.00000000E+00  0.00000000E+00  0.00000000E+00
  0.00000000E+00  0.00000000E+00  3.83119186E-02  2.37403116E-01  8.17592398E-01
  1.00000000E+00  1.00000000E+00  1.00000000E+00  0.00000000E+00  0.00000000E+00
  0.00000000E+00  0.00000000E+00  0.00000000E+00  0.00000000E+00  0.00000000E+00
  3.83119186E-02  2.37403116E-01  8.17592398E-01  1.00000000E+00  1.00000000E+00
  1.00000000E+00  0.00000000E+00  0.00000000E+00  0.00000000E+00  0.00000000E+00
  0.00000000E+00  0.00000000E+00  0.00000000E+00  3.83119186E-02  2.37403116E-01
  8.17592398E-01  1.00000000E+00  1.00000000E+00  1.00000000E+00  0.00000000E+00
  0.00000000E+00  0.00000000E+00  0.00000000E+00  0.00000000E+00  0.00000000E+00
  0.00000000E+00  3.83119186E-02  2.37403116E-01  8.17592398E-01  1.00000000E+00
  1.00000000E+00  1.00000000E+00  0.00000000E+00
Coordinates of each shell                  R   N=         108
 -2.13978766E+00 -1.20494818E+00  3.44678803E-01 -2.13978766E+00 -1.20494818E+00
  3.44678803E-01 -2.13978766E+00 -1.20494818E+00  3.44678803E-01 -2.13978766E+00
 -1.20494818E+00  3.44678803E-01 -2.13978766E+00 -1.20494818E+00  3.44678803E-01
 -2.13978766E+00 -1.20494818E+00  3.44678803E-01 -2.13975291E+00  1.20500444E+00
 -3.44683842E-01 -2.13975291E+00  1.20500444E+00 -3.44683842E-01 -2.13975291E+00
  1.20500444E+00 -3.44683842E-01 -2.13975291E+00  1.20500444E+00 -3.44683842E-01
 -2.13975291E+00  1.20500444E+00 -3.44683842E-01 -2.13975291E+00  1.20500444E+00
 -3.44683842E-01  2.88463119E-05  2.41810112E+00  1.76059485E-04  2.88463119E-05
  2.41810112E+00  1.76059485E-04  2.88463119E-05  2.41810112E+00  1.76059485E-04
  2.88463119E-05  2.41810112E+00  1.76059485E-04  2.88463119E-05  2.41810112E+00
  1.76059485E-04  2.88463119E-05  2.41810112E+00  1.76059485E-04  2.13979081E+00
  1.20488960E+00  3.44862106E-01  2.13979081E+00  1.20488960E+00  3.44862106E-01
  2.13979081E+00  1.20488960E+00  3.44862106E-01  2.13979081E+00  1.20488960E+00
  3.44862106E-01  2.13979081E+00  1.20488960E+00  3.44862106E-01  2.13979081E+00
  1.20488960E+00  3.44862106E-01  2.13975795E+00 -1.20494586E+00 -3.44855807E-01
  2.13975795E+00 -1.20494586E+00 -3.44855807E-01  2.13975795E+00 -1.20494586E+00
 -3.44855807E-01  2.13975795E+00 -1.20494586E+00 -3.44855807E-01  2.13975795E+00
 -1.20494586E+00 -3.44855807E-01  2.13975795E+00 -1.20494586E+00 -3.44855807E-01
 -3.70351251E-05 -2.41810112E+00 -1.77319302E-04 -3.70351251E-05 -2.41810112E+00
 -1.77319302E-04 -3.70351251E-05 -2.41810112E+00 -1.77319302E-04 -3.70351251E-05
 -2.41810112E+00 -1.77319302E-04 -3.70351251E-05 -2.41810112E+00 -1.77319302E-04
 -3.70351251E-05 -2.41810112E+00 -1.77319302E-04
Constraint Structure                       R   N=          18
 -2.13978766E+00 -1.20494818E+00  3.44678803E-01 -2.13975291E+00  1.20500444E+00
 -3.44683842E-01  2.88463119E-05  2.41810112E+00  1.76059485E-04  2.13979081E+00
  1.20488960E+00  3.44862106E-01  2.13975795E+00 -1.20494586E+00 -3.44855807E-01
 -3.70351251E-05 -2.41810112E+00 -1.77319302E-04
Num ILSW                                   I              100
ILSW                                       I   N=         100
           0           0           0           0           2           0
           0           0           0           0           0          -1
           0           0           0           0           0           0
           0           0           0           0           0           0
           1           0           0           0           0           0
           0           0      100000           0          -1           0
           0           0           0           0           0           0
           0           0           0           1           0           0
           0           0           1           0           0           0
           0           0           4          40           0           0
           0           0           0           0           0           0
           0           0           0           0           0           0
           0           0           0           0           0           0
           0           0           0           0           0           0
           0           0           0           0           0           0
           0           0           0           0           0           0
           0           0           0           0
Num RLSW                                   I               40
RLSW                                       R   N=          40
  1.00000000E+00  1.00000000E+00  1.00000000E+00  1.00000000E+00  1.00000000E+00
  0.00000000E+00  0.00000000E+00  1.00000000E+00  0.00000000E+00  0.00000000E+00
  0.00000000E+00  0.00000000E+00  1.00000000E+00  0.00000000E+00  0.00000000E+00
  0.00000000E+00  0.00000000E+00  1.00000000E+00  0.00000000E+00  0.00000000E+00
  0.00000000E+00  0.00000000E+00  1.00000000E+00  0.00000000E+00  0.00000000E+00
  0.00000000E+00  0.00000000E+00  1.00000000E+00  0.00000000E+00  0.00000000E+00
  0.00000000E+00  0.00000000E+00  0.00000000E+00  0.00000000E+00  0.00000000E+00
  0.00000000E+00  0.00000000E+00  0.00000000E+00  1.00000000E+00  1.00000000E+00
MxBond                                     I                2
NBond                                      I   N=           6
           2           2           2           2           2           2
IBond                                      I   N=          12
           2           6           1           3           2           4
           3           5           4           6           1           5
RBond                                      R   N=          12
  1.50000000E+00  1.50000000E+00  1.50000000E+00  1.50000000E+00  1.50000000E+00
  1.50000000E+00  1.50000000E+00  1.50000000E+00  1.50000000E+00  1.50000000E+00
  1.50000000E+00  1.50000000E+00
Virial Ratio                               R      2.001605099669548E+00
SCF Energy                                 R     -3.265044950892327E+02
MP2 Energy                                 R     -3.275511986938244E+02
Total Energy                               R     -3.275511986938244E+02
Post-SCF wavefunction norm                 R      1.168728631295317E+00
RMS Density                                R      9.584779334266952E-10
External E-field                           R   N=          35
  0.00000000E+00  0.00000000E+00  0.00000000E+00  0.00000000E+00  0.00000000E+00
  0.00000000E+00  0.00000000E+00  0.00000000E+00  0.00000000E+00  0.00000000E+00
  0.00000000E+00  0.00000000E+00  0.00000000E+00  0.00000000E+00  0.00000000E+00
  0.00000000E+00  0.00000000E+00  0.00000000E+00  0.00000000E+00  0.00000000E+00
  0.00000000E+00  0.00000000E+00  0.00000000E+00  0.00000000E+00  0.00000000E+00
  0.00000000E+00  0.00000000E+00  0.00000000E+00  0.00000000E+00  0.00000000E+00
  0.00000000E+00  0.00000000E+00  0.00000000E+00  0.00000000E+00  0.00000000E+00
IOpCl                                      I                0
IROHF                                      I                0
Alpha Orbital Energies                     R   N=         132
 -1.57459634E+01 -1.57458698E+01 -1.57451813E+01 -1.57449536E+01 -1.57430861E+01
 -1.57430175E+01 -1.59187389E+00 -1.41143339E+00 -1.40617932E+00 -1.11730634E+00
 -1.09842641E+00 -8.83706933E-01 -7.70125775E-01 -7.37918630E-01 -6.66753413E-01
 -6.15829705E-01 -6.05627289E-01 -5.44360517E-01 -5.14517980E-01 -4.96446826E-01
 -4.83981705E-01 -2.69516318E-02 -6.38243181E-04  1.22629906E-01  1.38332058E-01
  1.38879773E-01  1.45044643E-01  1.60209843E-01  1.67916458E-01  1.74593327E-01
  1.78942478E-01  1.90739241E-01  1.95169827E-01  2.28903999E-01  2.45683689E-01
  2.56346209E-01  2.61121075E-01  2.86885272E-01  2.87628496E-01  2.95330789E-01
  3.02381169E-01  3.11576140E-01  3.36875432E-01  3.41498305E-01  3.68033446E-01
  3.77834016E-01  3.86368594E-01  3.95654161E-01  4.07607019E-01  4.17504594E-01
  4.69015791E-01  5.37749941E-01  5.78886066E-01  7.27543521E-01  8.42844632E-01
  8.63618595E-01  8.68199557E-01  9.25309059E-01  9.27598451E-01  9.53619504E-01
  9.58016934E-01  9.61684143E-01  9.66362747E-01  9.76265490E-01  9.83037815E-01
  9.95097840E-01  1.02597835E+00  1.04035362E+00  1.07129044E+00  1.08109740E+00
  1.09173549E+00  1.14477223E+00  1.28518562E+00  1.36611297E+00  1.38702567E+00
  1.42159116E+00  1.47400358E+00  1.51755737E+00  1.65610755E+00  1.79739959E+00
  1.82927623E+00  1.84830486E+00  1.91560336E+00  1.95349100E+00  1.98599069E+00
  2.09087669E+00  2.13921149E+00  2.26810317E+00  2.30403935E+00  2.46516008E+00
  2.51246531E+00  2.52859008E+00  2.55337549E+00  2.72000350E+00  2.72286186E+00
  2.85496660E+00  2.91114072E+00  2.92911578E+00  2.96927384E+00  2.97091003E+00
  2.99594979E+00  3.05441642E+00  3.13037699E+00  3.26685945E+00  3.31236970E+00
  3.36549647E+00  3.56422270E+00  3.81097661E+00  4.00188209E+00  4.11827111E+00
  4.18489776E+00  4.21491730E+00  4.21595378E+00  4.23467312E+00  4.25344410E+00
  4.29945381E+00  4.30796556E+00  4.38813114E+00  4.38904651E+00  4.44752743E+00
  4.95573117E+00  4.99406288E+00  5.05362674E+00  5.54649576E+00  5.60216141E+00
  6.39145768E+00  3.64616296E+01  3.67830958E+01  3.68023718E+01  3.68087669E+01
  3.68180509E+01  3.68484174E+01
Alpha MO coefficients                      R   N=       17424
  2.71660616E-01  2.28046152E-01  1.20583380E-03  6.89264106E-04 -3.98949351E-04
  2.20715160E-03 -4.71145361E-04 -1.23305462E-04  1.11335304E-04 -2.93537899E-04
  1.58290963E-04  1.16321773E-04 -6.70984345E-05  1.28378676E-03  2.88736437E-04
 -1.32201270E-04 -8.12358331E-05 -1.00901103E-04 -5.34723423E-05 -7.60709598E-05
 -3.68578643E-05  6.39901554E-05  2.71616671E-01  2.28009249E-01  1.20561779E-03
 -6.89193896E-04  3.98890294E-04  2.20684109E-03 -4.71047570E-04  1.23236021E-04
 -1.11299518E-04 -2.93440940E-04  1.58249218E-04 -1.16320411E-04  6.70942660E-05
  1.28335316E-03  2.88769181E-04  1.32347114E-04  8.11880312E-05 -1.00896750E-04
  5.34663643E-05 -7.60738578E-05 -3.68842036E-05 -6.39822934E-05  8.97084567E-02
  7.52511142E-02 -1.19384181E-08 -4.80223085E-04 -3.24157649E-08  9.16245894E-04
 -7.44061853E-08 -4.53428541E-05 -1.86169539E-08  1.86893962E-04 -2.03390388E-08
 -3.71470588E-05 -6.85475073E-09 -2.34419607E-03  3.68809485E-07  4.36421438E-04
  4.78256939E-08 -1.05769055E-04  3.24920051E-05  2.07379164E-08  4.10506108E-05
  4.13268946E-08  2.71531850E-01  2.27938048E-01 -1.20525453E-03 -6.88887090E-04
 -3.98860282E-04  2.20615398E-03  4.70873640E-04  1.23251138E-04  1.11289590E-04
 -2.93375027E-04 -1.58171741E-04 -1.16221889E-04 -6.70860670E-05  1.28264674E-03
 -2.88530929E-04  1.31945671E-04 -8.10692851E-05 -1.00837624E-04  5.34612070E-05
  7.60650247E-05 -3.68201878E-05  6.39225504E-05  2.71488990E-01  2.27902056E-01
 -1.20504550E-03  6.88819489E-04  3.98796350E-04  2.20585138E-03  4.70778457E-04
 -1.23184118E-04 -1.11252296E-04 -2.93281413E-04 -1.58130970E-04  1.16220656E-04
  6.70811722E-05  1.28224174E-03 -2.88567782E-04 -1.32087050E-04  8.10217839E-05
 -1.00833909E-04 -5.34546006E-05  7.60674387E-05 -3.68454775E-05 -6.39150580E-05
  8.97086566E-02  7.52512819E-02 -8.48324519E-09  4.80224156E-04  3.60294010E-08
  9.16247720E-04 -1.30491225E-07  4.53429323E-05  2.72240924E-08  1.86894846E-04
 -3.11239941E-08  3.71475835E-05  5.92303589E-09 -2.34420645E-03  3.13691470E-07
 -4.36423925E-04 -2.01103317E-08 -1.05769436E-04 -3.24914388E-05  2.83909994E-08
  4.10506381E-05 -7.88056563E-08 -2.78860993E-01 -2.34113601E-01 -1.24968915E-03
 -7.08357436E-04  4.10735224E-04 -2.16625617E-03  5.90173136E-04  7.93149525E-05
 -1.33034693E-04  3.51068914E-04 -2.57855029E-04 -2.01563569E-04  6.16066629E-05
 -2.44392438E-03 -4.42703847E-04  5.94816428E-04  3.27986309E-04  9.46147412E-05
  4.22751639E-05  8.55822629E-05  6.80449154E-05 -1.36115740E-04 -2.78800614E-01
 -2.34062901E-01 -1.24939894E-03  7.08246128E-04 -4.10652279E-04 -2.16581199E-03
  5.90057993E-04 -7.91966093E-05  1.32980298E-04  3.50877233E-04 -2.57816809E-04
  2.01564911E-04 -6.16016366E-05 -2.44234254E-03 -4.42517738E-04 -5.95054399E-04
 -3.27884029E-04  9.46057259E-05 -4.22673390E-05  8.55914402E-05  6.80944063E-05
  1.36114750E-04  3.03916951E-05  2.54964074E-05  2.90780227E-05 -1.63189297E-07
  4.22989924E-06  2.98343109E-07  4.38554793E-04 -2.76243856E-08  8.12457552E-05
  9.03890869E-08  1.09509977E-04 -3.84754687E-08  1.69155241E-05 -1.08992425E-06
 -1.49344264E-03  2.56401790E-07 -5.82839295E-06 -4.42362874E-08 -1.08801084E-08
 -6.19321798E-05 -5.81992234E-09 -2.63817201E-04  2.78985754E-01  2.34218331E-01
 -1.25024109E-03 -7.08622058E-04 -4.11022015E-04  2.16727438E-03  5.90389257E-04
  7.93512628E-05  1.33095261E-04 -3.51201402E-04 -2.57928236E-04 -2.01610485E-04
 -6.16667760E-05  2.44449242E-03 -4.42835611E-04  5.94926218E-04 -3.27938693E-04
 -9.46388588E-05  4.23185993E-05  8.56537976E-05 -6.80539587E-05  1.36141509E-04
  2.78926362E-01  2.34168459E-01 -1.24995747E-03  7.08513097E-04  4.10933802E-04
  2.16683711E-03  5.90276937E-04 -7.92347976E-05 -1.33038545E-04 -3.51011845E-04
 -2.57891204E-04  2.01611973E-04  6.16604876E-05  2.44291986E-03 -4.42650491E-04
 -5.95160705E-04  3.27835090E-04 -9.46303072E-05 -4.23103550E-05  8.56622213E-05
 -6.81027148E-05 -1.36141106E-04  8.45262655E-06  7.08853989E-06  2.90781358E-05
  4.41438373E-08 -4.22986224E-06  9.48535812E-08  4.38555649E-04  6.51561520E-09
 -8.12446888E-05 -8.38831493E-09  1.09510160E-04 -2.32344413E-08 -1.69152271E-05
  4.66298751E-08 -1.49344211E-03  5.42325044E-08  5.82412965E-06 -1.88688228E-08
  1.21512251E-08 -6.19315570E-05  1.46656621E-08  2.63817760E-04 -2.63130054E-01
 -2.20945648E-01 -1.17890112E-03 -6.31183853E-04  3.75872774E-04 -1.94937595E-03
  4.63201261E-04  5.95739782E-04 -2.40163445E-04  7.86819051E-04 -1.58622841E-04
 -2.98866954E-05  2.93389267E-05 -6.67919260E-03 -8.18509155E-04 -1.09060133E-03
  4.36572839E-04  4.46885256E-05  2.85059866E-05 -3.55960074E-05 -1.96028369E-04
  1.94867798E-05  2.63192216E-01  2.20997836E-01  1.17916146E-03 -6.31373819E-04
  3.75967312E-04  1.94985997E-03 -4.63315122E-04  5.95770293E-04 -2.40194301E-04
 -7.86896953E-04  1.58679399E-04 -2.99357066E-05  2.93530325E-05  6.67973132E-03
  8.18574922E-04 -1.09049305E-03  4.36647223E-04 -4.47096689E-05  2.85171341E-05
  3.55762606E-05  1.96014427E-04  1.94456205E-05  1.30879802E-01  1.09834912E-01
 -2.68828768E-08 -6.97296284E-04 -5.13231792E-08  1.15632314E-03 -1.10353095E-07
  3.95170469E-05 -1.65331660E-08  3.55718583E-04 -3.05347162E-08 -2.79441451E-04
 -2.09205165E-08 -4.61473086E-03  1.36194795E-07  1.13395709E-03  5.29772918E-08
 -1.20733829E-04  1.18639051E-05  3.16053961E-08 -3.99348226E-05  6.95524965E-08
  2.63034887E-01  2.20865733E-01 -1.17847397E-03 -6.30910770E-04 -3.75829444E-04
  1.94869515E-03  4.62998741E-04  5.95530855E-04  2.40172204E-04 -7.86614194E-04
 -1.58539394E-04 -2.98682525E-05 -2.93320703E-05  6.67829145E-03 -8.18567949E-04
 -1.09021615E-03 -4.36636716E-04 -4.46886174E-05  2.84928599E-05 -3.56102180E-05
  1.95972129E-04 -1.95001481E-05 -2.63095992E-01 -2.20917033E-01  1.17873161E-03
 -6.31098043E-04 -3.75916186E-04 -1.94917046E-03 -4.63112152E-04  5.95560835E-04
  2.40200175E-04  7.86690987E-04  1.58595492E-04 -2.99168246E-05 -2.93450747E-05
 -6.67882561E-03  8.18635114E-04 -1.09010833E-03 -4.36706431E-04  4.47095962E-05
  2.85023351E-05  3.55906540E-05 -1.95958440E-04 -1.94594103E-05 -1.30879576E-01
 -1.09834722E-01  1.88895104E-09 -6.97295075E-04 -5.13976793E-08 -1.15632094E-03
  1.52777754E-08  3.95170081E-05  1.41099336E-09 -3.55718318E-04 -9.62797446E-10
 -2.79441334E-04 -1.76239626E-08  4.61472675E-03  2.20904925E-07  1.13395631E-03
  5.39051212E-08  1.20733669E-04  1.18633901E-05 -1.86609182E-08  3.99348571E-05
  9.57993566E-09 -2.78872449E-01 -2.34185222E-01 -1.24581050E-03 -6.52729019E-04
  3.94025778E-04 -1.97614932E-03  5.99948608E-04  5.19026469E-04 -2.33528282E-04
  6.14206680E-04 -2.44218477E-04 -3.69977655E-05  2.90125871E-05 -2.70273888E-03
  1.99423608E-04 -9.78218007E-04  3.05475100E-04  2.64680190E-05  2.64034007E-05
 -6.63190837E-06 -1.41965685E-04 -3.52672601E-05  2.78913949E-01  2.34220059E-01
  1.24597676E-03 -6.52867582E-04  3.94089783E-04  1.97649014E-03 -6.00000308E-04
  5.19064118E-04 -2.33546151E-04 -6.14246953E-04  2.44242254E-04 -3.70211532E-05
  2.90237726E-05  2.70289728E-03 -1.99418073E-04 -9.78194839E-04  3.05486492E-04
 -2.64844225E-05  2.64128056E-05  6.61973019E-06  1.41960579E-04 -3.52830592E-05
 -1.15862960E-05 -9.72501387E-06 -5.95224452E-05  6.35156707E-08 -1.89902363E-05
 -9.40713276E-08 -3.66551831E-04  6.80751002E-09 -5.41182458E-05 -5.28831178E-08
 -7.62332638E-05  4.23456367E-08  6.07864651E-06  6.45058695E-07 -2.88545355E-04
 -1.47082000E-07 -1.82696580E-04  1.70575806E-08  1.71313274E-08  4.22299290E-05
  1.83068747E-08  2.26966187E-04 -2.78963264E-01 -2.34261479E-01  1.24621604E-03
  6.52893696E-04  3.94249725E-04 -1.97681822E-03 -6.00109269E-04 -5.19201037E-04
 -2.33687626E-04  6.14479606E-04  2.44273845E-04  3.70041522E-05  2.90269522E-05
 -2.70505117E-03 -1.99149485E-04  9.78548525E-04  3.05771302E-04  2.64855624E-05
 -2.64170967E-05  6.65723087E-06 -1.42029657E-04 -3.52588641E-05  2.79003780E-01
  2.34295489E-01 -1.24637999E-03  6.53029764E-04  3.94305672E-04  1.97715132E-03
  6.00160155E-04 -5.19238401E-04 -2.33701842E-04 -6.14518588E-04 -2.44296871E-04
  3.70268295E-05  2.90366341E-05  2.70520081E-03  1.99143891E-04  9.78527464E-04
  3.05782539E-04 -2.65018569E-05 -2.64253464E-05 -6.64553773E-06  1.42024916E-04
 -3.52741470E-05  3.30956362E-05  2.77743718E-05  5.95224371E-05  1.75506510E-07
 -1.89900617E-05  2.93017442E-07  3.66551210E-04 -1.51414836E-08 -5.41171335E-05
  6.69280413E-08  7.62330481E-05  5.25733740E-08  6.07887552E-06 -9.16592284E-07
  2.88548507E-04 -2.07274563E-07 -1.82695807E-04 -3.50767815E-08  1.11532911E-08
 -4.22292183E-05 -2.33836598E-09  2.26965837E-04 -6.34887439E-02 -5.33453627E-02
 -2.42743181E-04 -1.93044179E-04  9.71576481E-05 -3.59968008E-04  3.93872343E-04
 -9.49794534E-05 -6.27299261E-05  3.14070857E-04 -2.82450629E-05 -8.42984873E-05
  3.59418185E-06 -2.41275432E-03 -6.33137671E-04  1.68612573E-04  1.01202026E-04
 -2.96583274E-05 -1.32036445E-05  3.05726736E-05  1.30169586E-04 -1.19664021E-04
 -6.34935798E-02 -5.33494234E-02 -2.42759527E-04  1.93061816E-04 -9.71651862E-05
 -3.60003236E-04  3.93882977E-04  9.49594790E-05  6.27345179E-05  3.14077331E-04
 -2.82483788E-05  8.43005150E-05 -3.59525567E-06 -2.41277940E-03 -6.33130727E-04
 -1.68575181E-04 -1.01208008E-04 -2.96573769E-05  1.32040366E-05  3.05724835E-05
  1.30172658E-04  1.19657330E-04  3.84098590E-01  3.22520056E-01 -3.22371976E-08
 -1.97074396E-03 -1.33384992E-07  2.89257492E-03  2.06459732E-08  9.64060637E-04
  6.57189686E-08 -7.66808595E-04 -4.86237820E-09 -3.25882634E-04 -2.10743500E-08
  4.91584631E-03 -1.78758726E-08 -8.56836099E-04 -6.34196764E-08 -8.11169714E-05
  7.08707229E-06  1.63178088E-08 -1.11111678E-04  2.41939931E-09 -6.34863515E-02
 -5.33433520E-02  2.42734560E-04  1.93024115E-04  9.71828096E-05 -3.59957210E-04
 -3.93861695E-04  9.49884423E-05 -6.27129620E-05  3.14062127E-04  2.82444344E-05
  8.42966630E-05  3.60532168E-06 -2.41266916E-03  6.33120531E-04 -1.68621423E-04
  1.01176313E-04 -2.96667097E-05  1.31863142E-05 -3.05833871E-05  1.30163578E-04
 -1.19664365E-04 -6.34924826E-02 -5.33485009E-02  2.42756764E-04 -1.93045112E-04
 -9.71907809E-05 -3.60000391E-04 -3.93879731E-04 -9.49675865E-05  6.27171104E-05
  3.14080272E-04  2.82458411E-05 -8.42981462E-05 -3.60570407E-06 -2.41276188E-03
  6.33129489E-04  1.68581767E-04 -1.01182568E-04 -2.96666315E-05 -1.31861919E-05
 -3.05828915E-05  1.30168158E-04  1.19658808E-04  3.84101338E-01  3.22522364E-01
  1.86751697E-08  1.97075807E-03  1.36567019E-07  2.89259528E-03 -1.22280467E-08
 -9.64067886E-04 -6.59648111E-08 -7.66815978E-04  2.14958627E-09  3.25884088E-04
  2.14608642E-08  4.91588972E-03 -2.45780955E-09  8.56843203E-04  6.84210919E-08
 -8.11175405E-05 -7.08707951E-06  1.77834321E-08 -1.11112409E-04 -1.28536076E-09
  9.26176524E-02  7.78122678E-02  3.82840346E-04  2.39561191E-04 -1.23448141E-04
  5.74050374E-04 -4.90031194E-04 -6.91456199E-05  1.16000386E-04 -8.12210079E-04
 -1.30722897E-04 -3.61907155E-05  3.66231983E-05  4.75488126E-03  1.07038042E-03
  1.70561924E-04 -2.55587311E-04  5.01542621E-05  2.99836264E-05 -2.21384072E-05
 -9.54487687E-05  6.60814945E-05 -9.26233980E-02 -7.78170918E-02 -3.82858968E-04
  2.39586462E-04 -1.23457618E-04 -5.74094092E-04  4.90042933E-04 -6.91598422E-05
  1.16004477E-04  8.12219090E-04  1.30716447E-04 -3.61896392E-05  3.66223066E-05
 -4.75495005E-03 -1.07038852E-03  1.70576718E-04 -2.55597819E-04 -5.01524929E-05
  2.99838571E-05  2.21396654E-05  9.54543211E-05  6.60798148E-05  3.72089021E-01
  3.12445457E-01 -3.12398921E-08 -1.91182161E-03 -1.29501453E-07  2.75989926E-03
  1.99151391E-08  9.87406625E-04  6.74119725E-08 -1.02282035E-03 -1.09301970E-09
 -1.90825190E-04 -1.07665900E-08  6.05157169E-03 -3.49916755E-08 -9.97969415E-04
 -7.52004772E-08 -7.05119484E-05  1.11050994E-05  1.42954656E-08 -1.00474993E-04
  2.27647021E-09 -9.26179962E-02 -7.78125555E-02  3.82843349E-04  2.39544415E-04
  1.23483510E-04 -5.74056432E-04 -4.90031263E-04 -6.91287902E-05 -1.16009878E-04
  8.12208637E-04 -1.30719326E-04 -3.61873896E-05 -3.66306459E-05 -4.75487046E-03
  1.07037500E-03  1.70528642E-04  2.55618114E-04 -5.01599463E-05  2.99746479E-05
 -2.21398709E-05  9.54466961E-05 -6.60866097E-05  9.26227211E-02  7.78165219E-02
 -3.82858679E-04  2.39566622E-04  1.23489398E-04  5.74094151E-04  4.90037666E-04
 -6.91443650E-05 -1.16010407E-04 -8.12212879E-04  1.30713523E-04 -3.61875944E-05
 -3.66291337E-05  4.75490300E-03 -1.07037501E-03  1.70545981E-04  2.55621416E-04
  5.01580548E-05  2.99737373E-05  2.21403055E-05 -9.54504826E-05 -6.60832686E-05