 Entering Gaussian System, Link 0=g09
 Initial command:
 /apps/software//g09/l1.exe /scratch/itamar/2421.cluster.abaxnet/Gau-26812.inp -scrdir=/scratch/itamar/2421.cluster.abaxnet/
 Entering Link 1 = /apps/software//g09/l1.exe PID=     26813.
  
 Copyright (c) 1988,1990,1992,1993,1995,1998,2003,2009, Gaussian, Inc.
                  All Rights Reserved.
  
 This is part of the Gaussian(R) 09 program.  It is based on
 the Gaussian(R) 03 system (copyright 2003, Gaussian, Inc.),
 the Gaussian(R) 98 system (copyright 1998, Gaussian, Inc.),
 the Gaussian(R) 94 system (copyright 1995, Gaussian, Inc.),
 the Gaussian 92(TM) system (copyright 1992, Gaussian, Inc.),
 the Gaussian 90(TM) system (copyright 1990, Gaussian, Inc.),
 the Gaussian 88(TM) system (copyright 1988, Gaussian, Inc.),
 the Gaussian 86(TM) system (copyright 1986, Carnegie Mellon
 University), and the Gaussian 82(TM) system (copyright 1983,
 Carnegie Mellon University). Gaussian is a federally registered
 trademark of Gaussian, Inc.
  
 This software contains proprietary and confidential information,
 including trade secrets, belonging to Gaussian, Inc.
  
 This software is provided under written license and may be
 used, copied, transmitted, or stored only in accord with that
 written license.
  
 The following legend is applicable only to US Government
 contracts under FAR:
  
                    RESTRICTED RIGHTS LEGEND
  
 Use, reproduction and disclosure by the US Government is
 subject to restrictions as set forth in subparagraphs (a)
 and (c) of the Commercial Computer Software - Restricted
 Rights clause in FAR 52.227-19.
  
 Gaussian, Inc.
 340 Quinnipiac St., Bldg. 40, Wallingford CT 06492
  
  
 ---------------------------------------------------------------
 Warning -- This program may not be used in any manner that
 competes with the business of Gaussian, Inc. or will provide
 assistance to any competitor of Gaussian, Inc.  The licensee
 of this program is prohibited from giving any competitor of
 Gaussian, Inc. access to this program.  By using this program,
 the user acknowledges that Gaussian, Inc. is engaged in the
 business of creating and licensing software in the field of
 computational chemistry and represents and warrants to the
 licensee that it is not a competitor of Gaussian, Inc. and that
 it will not use this program in any manner prohibited above.
 ---------------------------------------------------------------
  

 Cite this work as:
 Gaussian 09, Revision A.02,
 M. J. Frisch, G. W. Trucks, H. B. Schlegel, G. E. Scuseria, 
 M. A. Robb, J. R. Cheeseman, G. Scalmani, V. Barone, B. Mennucci, 
 G. A. Petersson, H. Nakatsuji, M. Caricato, X. Li, H. P. Hratchian, 
 A. F. Izmaylov, J. Bloino, G. Zheng, J. L. Sonnenberg, M. Hada, 
 M. Ehara, K. Toyota, R. Fukuda, J. Hasegawa, M. Ishida, T. Nakajima, 
 Y. Honda, O. Kitao, H. Nakai, T. Vreven, J. A. Montgomery, Jr., 
 J. E. Peralta, F. Ogliaro, M. Bearpark, J. J. Heyd, E. Brothers, 
 K. N. Kudin, V. N. Staroverov, R. Kobayashi, J. Normand, 
 K. Raghavachari, A. Rendell, J. C. Burant, S. S. Iyengar, J. Tomasi, 
 M. Cossi, N. Rega, J. M. Millam, M. Klene, J. E. Knox, J. B. Cross, 
 V. Bakken, C. Adamo, J. Jaramillo, R. Gomperts, R. E. Stratmann, 
 O. Yazyev, A. J. Austin, R. Cammi, C. Pomelli, J. W. Ochterski, 
 R. L. Martin, K. Morokuma, V. G. Zakrzewski, G. A. Voth, 
 P. Salvador, J. J. Dannenberg, S. Dapprich, A. D. Daniels, 
 O. Farkas, J. B. Foresman, J. V. Ortiz, J. Cioslowski, 
 and D. J. Fox, Gaussian, Inc., Wallingford CT, 2009.
 
 ******************************************
 Gaussian 09:  EM64L-G09RevA.02 11-Jun-2009
                 3-Dec-2021 
 ******************************************
 %Mem=3800MB
 %NProcShared=6
 Will use up to    6 processors via shared memory.
 %chk=/home/itamar/Aromaticity-test-set/T3-Boat-Like/15/boat-15.chk
 -----------------------------
 #P MP2/6-311++G** DENSITY=MP2
 -----------------------------
 1/30=1,38=1/1;
 2/12=2,17=6,18=5,40=1/2;
 3/5=4,6=6,7=1111,11=9,16=1,25=1,30=1,71=1/1,2,3;
 4//1;
 5/5=2,38=5/2;
 8/6=4,10=2/1;
 9/15=1,16=-3/6;
 10/5=1,13=10/2;
 6/7=2,8=2,9=2,10=2,22=2/1;
 99/5=1,9=1/99;
 Leave Link    1 at Fri Dec  3 11:53:08 2021, MaxMem=  498073600 cpu:       0.2
 (Enter /apps/software//g09/l101.exe)
 -------
 Boat-15
 -------
 Symbolic Z-matrix:
 Charge =  0 Multiplicity = 1
 6                    -0.00217   1.39347   0.06125 
 6                     1.20777   0.69486   0.06125 
 6                     1.19347  -0.68907  -0.12082 
 6                     0.00217  -1.39347   0.06125 
 6                    -1.20777  -0.69486   0.06125 
 6                    -1.19347   0.68907  -0.12082 
 1                    -0.00859   2.47683   0.10309 
 1                     2.14924   1.2309    0.1034 
 1                     2.13003  -1.22976  -0.20818 
 1                     0.00859  -2.47683   0.10309 
 1                    -2.14924  -1.2309    0.1034 
 1                    -2.13003   1.22976  -0.20818 
 
 NAtoms=     12 NQM=     12 NQMF=      0 NMic=      0 NMicF=      0 NTot=     12.
                    Isotopes and Nuclear Properties:
 (Nuclear quadrupole moments (NQMom) in fm**2, nuclear magnetic moments (NMagM)
  in nuclear magnetons)

  Atom         1           2           3           4           5           6           7           8           9          10
 IAtWgt=          12          12          12          12          12          12           1           1           1           1
 AtmWgt=  12.0000000  12.0000000  12.0000000  12.0000000  12.0000000  12.0000000   1.0078250   1.0078250   1.0078250   1.0078250
 NucSpn=           0           0           0           0           0           0           1           1           1           1
 AtZEff=   0.0000000   0.0000000   0.0000000   0.0000000   0.0000000   0.0000000   0.0000000   0.0000000   0.0000000   0.0000000
 NQMom=    0.0000000   0.0000000   0.0000000   0.0000000   0.0000000   0.0000000   0.0000000   0.0000000   0.0000000   0.0000000
 NMagM=    0.0000000   0.0000000   0.0000000   0.0000000   0.0000000   0.0000000   2.7928460   2.7928460   2.7928460   2.7928460

  Atom        11          12
 IAtWgt=           1           1
 AtmWgt=   1.0078250   1.0078250
 NucSpn=           1           1
 AtZEff=   0.0000000   0.0000000
 NQMom=    0.0000000   0.0000000
 NMagM=    2.7928460   2.7928460
 Leave Link  101 at Fri Dec  3 11:53:08 2021, MaxMem=  498073600 cpu:       0.2
 (Enter /apps/software//g09/l202.exe)
                          Input orientation:                          
 ---------------------------------------------------------------------
 Center     Atomic      Atomic             Coordinates (Angstroms)
 Number     Number       Type             X           Y           Z
 ---------------------------------------------------------------------
      1          6           0       -0.002172    1.393469    0.061254
      2          6           0        1.207772    0.694861    0.061254
      3          6           0        1.193472   -0.689068   -0.120820
      4          6           0        0.002172   -1.393469    0.061254
      5          6           0       -1.207772   -0.694861    0.061254
      6          6           0       -1.193472    0.689068   -0.120820
      7          1           0       -0.008593    2.476826    0.103094
      8          1           0        2.149236    1.230900    0.103398
      9          1           0        2.130030   -1.229759   -0.208181
     10          1           0        0.008593   -2.476826    0.103094
     11          1           0       -2.149236   -1.230900    0.103398
     12          1           0       -2.130030    1.229759   -0.208181
 ---------------------------------------------------------------------
                    Distance matrix (angstroms):
                    1          2          3          4          5
     1  C    0.000000
     2  C    1.397146   0.000000
     3  C    2.408252   1.395928   0.000000
     4  C    2.786941   2.411347   1.395897   0.000000
     5  C    2.411347   2.786787   2.408144   1.397146   0.000000
     6  C    1.395897   2.408144   2.756222   2.408252   1.395928
     7  H    1.084184   2.157937   3.393815   3.870536   3.391073
     8  H    2.157953   1.084190   2.156394   3.391014   3.870379
     9  H    3.391195   2.151120   1.084951   2.151087   3.391111
    10  H    3.870536   3.391073   2.156422   1.084184   2.157937
    11  H    3.391014   3.870379   3.393752   2.157953   1.084190
    12  H    2.151087   3.391111   3.838645   3.391195   2.151120
                    6          7          8          9         10
     6  C    0.000000
     7  H    2.156422   0.000000
     8  H    3.393752   2.491698   0.000000
     9  H    3.838645   4.290615   2.480382   0.000000
    10  H    3.393815   4.953682   4.281306   2.480436   0.000000
    11  H    2.156394   4.281306   4.953516   4.290594   2.491698
    12  H    1.084951   2.480436   4.290594   4.919079   4.290615
                   11         12
    11  H    0.000000
    12  H    2.480382   0.000000
 Stoichiometry    C6H6
 Framework group  C2[X(C6H6)]
 Deg. of freedom    16
 Full point group                 C2      NOp   2
 Largest Abelian subgroup         C2      NOp   2
 Largest concise Abelian subgroup C2      NOp   2
                         Standard orientation:                         
 ---------------------------------------------------------------------
 Center     Atomic      Atomic             Coordinates (Angstroms)
 Number     Number       Type             X           Y           Z
 ---------------------------------------------------------------------
      1          6           0        0.016570    1.393372   -0.060852
      2          6           0       -1.200528    0.707303   -0.060852
      3          6           0       -1.200528   -0.676700    0.121222
      4          6           0       -0.016570   -1.393372   -0.060852
      5          6           0        1.200528   -0.707303   -0.060852
      6          6           0        1.200528    0.676700    0.121222
      7          1           0        0.034184    2.476605   -0.102692
      8          1           0       -2.136403    1.253041   -0.102996
      9          1           0       -2.142623   -1.207685    0.208583
     10          1           0       -0.034184   -2.476605   -0.102692
     11          1           0        2.136403   -1.253041   -0.102996
     12          1           0        2.142623    1.207685    0.208583
 ---------------------------------------------------------------------
 Rotational constants (GHZ):      5.7353837      5.6842338      2.8763190
 Leave Link  202 at Fri Dec  3 11:53:08 2021, MaxMem=  498073600 cpu:       0.0
 (Enter /apps/software//g09/l301.exe)
 Standard basis: 6-311++G(d,p) (5D, 7F)
 Ernie: Thresh=  0.10000D-02 Tol=  0.10000D-05 Strict=F.
 There are    87 symmetry adapted basis functions of A   symmetry.
 There are    87 symmetry adapted basis functions of B   symmetry.
 Integral buffers will be    131072 words long.
 Raffenetti 1 integral format.
 Two-electron integral symmetry is turned on.
   174 basis functions,   270 primitive gaussians,   180 cartesian basis functions
    21 alpha electrons       21 beta electrons
       nuclear repulsion energy       203.6399372783 Hartrees.
 IExCor=    0 DFT=F Ex=HF Corr=None ExCW=0 ScaHFX=  1.000000
 ScaDFX=  1.000000  1.000000  1.000000  1.000000 ScalE2=  1.000000  1.000000
 IRadAn=      0 IRanWt=     -1 IRanGd=            0 ICorTp=0
 NAtoms=   12 NActive=   12 NUniq=    6 SFac= 3.00D+00 NAtFMM=   80 NAOKFM=F Big=F
 Leave Link  301 at Fri Dec  3 11:53:08 2021, MaxMem=  498073600 cpu:       0.2
 (Enter /apps/software//g09/l302.exe)
 NPDir=0 NMtPBC=     1 NCelOv=     1 NCel=       1 NClECP=     1 NCelD=      1
         NCelK=      1 NCelE2=     1 NClLst=     1 CellRange=     0.0.
 One-electron integrals computed using PRISM.
 One-electron integral symmetry used in STVInt
 NBasis=   174 RedAO= T  NBF=    87    87
 NBsUse=   174 1.00D-06 NBFU=    87    87
 Leave Link  302 at Fri Dec  3 11:53:09 2021, MaxMem=  498073600 cpu:       1.3
 (Enter /apps/software//g09/l303.exe)
 DipDrv:  MaxL=1.
 Leave Link  303 at Fri Dec  3 11:53:09 2021, MaxMem=  498073600 cpu:       0.2
 (Enter /apps/software//g09/l401.exe)
 Harris functional with IExCor=  205 diagonalized for initial guess.
 ExpMin= 3.60D-02 ExpMax= 4.56D+03 ExpMxC= 6.82D+02 IAcc=3 IRadAn=         0 AccDes= 0.00D+00
 HarFok:  IExCor=  205 AccDes= 0.00D+00 IRadAn=         0 IDoV= 1
 ScaDFX=  1.000000  1.000000  1.000000  1.000000
 FoFCou: FMM=F IPFlag=           0 FMFlag=      100000 FMFlg1=           0
         NFxFlg=           0 DoJE=T BraDBF=F KetDBF=T FulRan=T
         Omega=  0.000000  0.000000  1.000000  0.000000  0.000000 ICntrl=     500 IOpCl=  0
         NMat0=    1 NMatS0=    1 NMatT0=    0 NMatD0=    1 NMtDS0=    0 NMtDT0=    0
         I1Cent=           4 NGrid=           0.
 Petite list used in FoFCou.
 Harris En= -231.143035419446    
 Initial guess orbital symmetries:
       Occupied  (A) (B) (B) (A) (A) (B) (A) (B) (B) (A) (A) (A)
                 (B) (B) (B) (B) (A) (A) (A) (B) (B)
       Virtual   (A) (A) (A) (B) (B) (B) (A) (A) (A) (A) (B) (B)
                 (B) (B) (A) (B) (B) (A) (A) (B) (B) (A) (A) (A)
                 (B) (A) (B) (B) (A) (B) (A) (A) (A) (A) (B) (B)
                 (B) (A) (A) (B) (B) (B) (A) (B) (A) (B) (A) (A)
                 (B) (A) (A) (B) (A) (B) (B) (A) (A) (A) (B) (B)
                 (A) (B) (B) (A) (B) (A) (B) (A) (B) (A) (B) (B)
                 (A) (B) (B) (A) (B) (A) (A) (A) (A) (B) (B) (B)
                 (B) (A) (A) (A) (B) (A) (A) (B) (B) (A) (B) (B)
                 (A) (A) (B) (B) (B) (A) (B) (A) (B) (A) (B) (A)
                 (A) (A) (B) (A) (A) (A) (B) (B) (B) (B) (A) (B)
                 (A) (B) (A) (B) (B) (B) (A) (B) (A) (A) (A) (A)
                 (A) (B) (B) (A) (A) (B) (B) (A) (B) (A) (A) (B)
                 (B) (B) (A) (A) (B) (B) (A) (A) (B)
 The electronic state of the initial guess is 1-A.
 Leave Link  401 at Fri Dec  3 11:53:09 2021, MaxMem=  498073600 cpu:       2.9
 (Enter /apps/software//g09/l502.exe)
 Closed shell SCF:
 Requested convergence on RMS density matrix=1.00D-08 within 128 cycles.
 Requested convergence on MAX density matrix=1.00D-06.
 Requested convergence on             energy=1.00D-06.
 No special actions if energy rises.
 Using DIIS extrapolation, IDIIS=  1040.
 Integral symmetry usage will be decided dynamically.
 Keep R1 ints in memory in canonical form, NReq=135772999.
 IEnd=      118010 IEndB=      118010 NGot=   498073600 MDV=   365314588
 LenX=   365314588 LenY=   365281747
 Symmetry not used in FoFDir.
 MinBra= 0 MaxBra= 2 Meth= 1.
 IRaf=       0 NMat=   1 IRICut=       1 DoRegI=T DoRafI=F ISym2E= 0 JSym2E=0.

 Cycle   1  Pass 1  IDiag  1:
 E= -230.444039367162    
 DIIS: error= 6.18D-02 at cycle   1 NSaved=   1.
 NSaved= 1 IEnMin= 1 EnMin= -230.444039367162     IErMin= 1 ErrMin= 6.18D-02
 ErrMax= 6.18D-02 EMaxC= 1.00D-01 BMatC= 5.16D-01 BMatP= 5.16D-01
 IDIUse=3 WtCom= 3.82D-01 WtEn= 6.18D-01
 Coeff-Com:  0.100D+01
 Coeff-En:   0.100D+01
 Coeff:      0.100D+01
 Gap=     0.471 Goal=   None    Shift=    0.000
 GapD=    0.471 DampG=2.000 DampE=0.500 DampFc=1.0000 IDamp=-1.
 RMSDP=1.05D-01 MaxDP=3.03D+00              OVMax= 1.61D-01

 Cycle   2  Pass 1  IDiag  1:
 E= -230.697345436092     Delta-E=       -0.253306068930 Rises=F Damp=F
 DIIS: error= 2.75D-02 at cycle   2 NSaved=   2.
 NSaved= 2 IEnMin= 2 EnMin= -230.697345436092     IErMin= 2 ErrMin= 2.75D-02
 ErrMax= 2.75D-02 EMaxC= 1.00D-01 BMatC= 5.00D-02 BMatP= 5.16D-01
 IDIUse=3 WtCom= 7.25D-01 WtEn= 2.75D-01
 Coeff-Com:  0.159D+00 0.841D+00
 Coeff-En:   0.000D+00 0.100D+01
 Coeff:      0.115D+00 0.885D+00
 Gap=     0.415 Goal=   None    Shift=    0.000
 RMSDP=1.67D-01 MaxDP=4.70D+00 DE=-2.53D-01 OVMax= 5.97D-02

 Cycle   3  Pass 1  IDiag  1:
 E= -230.740697995970     Delta-E=       -0.043352559877 Rises=F Damp=F
 DIIS: error= 8.31D-03 at cycle   3 NSaved=   3.
 NSaved= 3 IEnMin= 3 EnMin= -230.740697995970     IErMin= 3 ErrMin= 8.31D-03
 ErrMax= 8.31D-03 EMaxC= 1.00D-01 BMatC= 5.85D-03 BMatP= 5.00D-02
 IDIUse=3 WtCom= 9.17D-01 WtEn= 8.31D-02
 Coeff-Com: -0.198D-01 0.227D+00 0.793D+00
 Coeff-En:   0.000D+00 0.000D+00 0.100D+01
 Coeff:     -0.182D-01 0.208D+00 0.810D+00
 Gap=     0.376 Goal=   None    Shift=    0.000
 RMSDP=1.08D-02 MaxDP=3.08D-01 DE=-4.34D-02 OVMax= 1.59D-02

 Cycle   4  Pass 1  IDiag  1:
 E= -230.746343304385     Delta-E=       -0.005645308416 Rises=F Damp=F
 DIIS: error= 1.22D-03 at cycle   4 NSaved=   4.
 NSaved= 4 IEnMin= 4 EnMin= -230.746343304385     IErMin= 4 ErrMin= 1.22D-03
 ErrMax= 1.22D-03 EMaxC= 1.00D-01 BMatC= 3.91D-05 BMatP= 5.85D-03
 IDIUse=3 WtCom= 9.88D-01 WtEn= 1.22D-02
 Coeff-Com: -0.182D-02-0.168D-01 0.828D-02 0.101D+01
 Coeff-En:   0.000D+00 0.000D+00 0.000D+00 0.100D+01
 Coeff:     -0.179D-02-0.166D-01 0.818D-02 0.101D+01
 Gap=     0.376 Goal=   None    Shift=    0.000
 RMSDP=5.62D-03 MaxDP=1.57D-01 DE=-5.65D-03 OVMax= 2.22D-03

 Cycle   5  Pass 1  IDiag  1:
 E= -230.746403575516     Delta-E=       -0.000060271131 Rises=F Damp=F
 DIIS: error= 2.15D-04 at cycle   5 NSaved=   5.
 NSaved= 5 IEnMin= 5 EnMin= -230.746403575516     IErMin= 5 ErrMin= 2.15D-04
 ErrMax= 2.15D-04 EMaxC= 1.00D-01 BMatC= 2.06D-06 BMatP= 3.91D-05
 IDIUse=3 WtCom= 9.98D-01 WtEn= 2.15D-03
 Coeff-Com:  0.110D-02-0.864D-02-0.395D-01-0.168D+00 0.121D+01
 Coeff-En:   0.000D+00 0.000D+00 0.000D+00 0.000D+00 0.100D+01
 Coeff:      0.110D-02-0.863D-02-0.394D-01-0.167D+00 0.121D+01
 Gap=     0.376 Goal=   None    Shift=    0.000
 RMSDP=1.34D-03 MaxDP=3.73D-02 DE=-6.03D-05 OVMax= 6.95D-04

 Cycle   6  Pass 1  IDiag  1:
 E= -230.746408128287     Delta-E=       -0.000004552771 Rises=F Damp=F
 DIIS: error= 2.58D-05 at cycle   6 NSaved=   6.
 NSaved= 6 IEnMin= 6 EnMin= -230.746408128287     IErMin= 6 ErrMin= 2.58D-05
 ErrMax= 2.58D-05 EMaxC= 1.00D-01 BMatC= 4.30D-08 BMatP= 2.06D-06
 IDIUse=1 WtCom= 1.00D+00 WtEn= 0.00D+00
 Coeff-Com:  0.608D-04-0.599D-04-0.644D-03-0.135D-01-0.221D-02 0.102D+01
 Coeff:      0.608D-04-0.599D-04-0.644D-03-0.135D-01-0.221D-02 0.102D+01
 Gap=     0.377 Goal=   None    Shift=    0.000
 RMSDP=2.19D-05 MaxDP=6.47D-04 DE=-4.55D-06 OVMax= 1.25D-04

 Cycle   7  Pass 1  IDiag  1:
 E= -230.746408219539     Delta-E=       -0.000000091252 Rises=F Damp=F
 DIIS: error= 1.40D-05 at cycle   7 NSaved=   7.
 NSaved= 7 IEnMin= 7 EnMin= -230.746408219539     IErMin= 7 ErrMin= 1.40D-05
 ErrMax= 1.40D-05 EMaxC= 1.00D-01 BMatC= 8.65D-09 BMatP= 4.30D-08
 IDIUse=1 WtCom= 1.00D+00 WtEn= 0.00D+00
 Coeff-Com: -0.917D-04 0.818D-03 0.369D-02 0.137D-01-0.121D+00 0.227D+00
 Coeff-Com:  0.875D+00
 Coeff:     -0.917D-04 0.818D-03 0.369D-02 0.137D-01-0.121D+00 0.227D+00
 Coeff:      0.875D+00
 Gap=     0.377 Goal=   None    Shift=    0.000
 RMSDP=6.10D-06 MaxDP=1.80D-04 DE=-9.13D-08 OVMax= 4.55D-05

 Cycle   8  Pass 1  IDiag  1:
 E= -230.746408236167     Delta-E=       -0.000000016628 Rises=F Damp=F
 DIIS: error= 5.16D-06 at cycle   8 NSaved=   8.
 NSaved= 8 IEnMin= 8 EnMin= -230.746408236167     IErMin= 8 ErrMin= 5.16D-06
 ErrMax= 5.16D-06 EMaxC= 1.00D-01 BMatC= 6.80D-10 BMatP= 8.65D-09
 IDIUse=1 WtCom= 1.00D+00 WtEn= 0.00D+00
 Coeff-Com:  0.196D-04-0.234D-03-0.109D-02-0.285D-02 0.388D-01-0.182D+00
 Coeff-Com: -0.289D+00 0.144D+01
 Coeff:      0.196D-04-0.234D-03-0.109D-02-0.285D-02 0.388D-01-0.182D+00
 Coeff:     -0.289D+00 0.144D+01
 Gap=     0.377 Goal=   None    Shift=    0.000
 RMSDP=3.50D-06 MaxDP=8.80D-05 DE=-1.66D-08 OVMax= 2.89D-05

 Cycle   9  Pass 1  IDiag  1:
 E= -230.746408238862     Delta-E=       -0.000000002695 Rises=F Damp=F
 DIIS: error= 7.16D-07 at cycle   9 NSaved=   9.
 NSaved= 9 IEnMin= 9 EnMin= -230.746408238862     IErMin= 9 ErrMin= 7.16D-07
 ErrMax= 7.16D-07 EMaxC= 1.00D-01 BMatC= 1.97D-11 BMatP= 6.80D-10
 IDIUse=1 WtCom= 1.00D+00 WtEn= 0.00D+00
 Coeff-Com: -0.292D-05 0.468D-04 0.242D-03 0.474D-03-0.906D-02 0.560D-01
 Coeff-Com:  0.634D-01-0.502D+00 0.139D+01
 Coeff:     -0.292D-05 0.468D-04 0.242D-03 0.474D-03-0.906D-02 0.560D-01
 Coeff:      0.634D-01-0.502D+00 0.139D+01
 Gap=     0.377 Goal=   None    Shift=    0.000
 RMSDP=4.11D-06 MaxDP=1.14D-04 DE=-2.69D-09 OVMax= 4.38D-06

 Cycle  10  Pass 1  IDiag  1:
 E= -230.746408238927     Delta-E=       -0.000000000065 Rises=F Damp=F
 DIIS: error= 7.18D-08 at cycle  10 NSaved=  10.
 NSaved=10 IEnMin=10 EnMin= -230.746408238927     IErMin=10 ErrMin= 7.18D-08
 ErrMax= 7.18D-08 EMaxC= 1.00D-01 BMatC= 4.18D-13 BMatP= 1.97D-11
 IDIUse=1 WtCom= 1.00D+00 WtEn= 0.00D+00
 Coeff-Com: -0.358D-07-0.131D-05-0.133D-04 0.667D-05 0.510D-03-0.452D-02
 Coeff-Com: -0.382D-02 0.475D-01-0.232D+00 0.119D+01
 Coeff:     -0.358D-07-0.131D-05-0.133D-04 0.667D-05 0.510D-03-0.452D-02
 Coeff:     -0.382D-02 0.475D-01-0.232D+00 0.119D+01
 Gap=     0.377 Goal=   None    Shift=    0.000
 RMSDP=2.53D-07 MaxDP=7.81D-06 DE=-6.49D-11 OVMax= 4.13D-07

 Cycle  11  Pass 1  IDiag  1:
 E= -230.746408238929     Delta-E=       -0.000000000002 Rises=F Damp=F
 DIIS: error= 1.75D-08 at cycle  11 NSaved=  11.
 NSaved=11 IEnMin=11 EnMin= -230.746408238929     IErMin=11 ErrMin= 1.75D-08
 ErrMax= 1.75D-08 EMaxC= 1.00D-01 BMatC= 2.63D-14 BMatP= 4.18D-13
 IDIUse=1 WtCom= 1.00D+00 WtEn= 0.00D+00
 Coeff-Com:  0.141D-06-0.239D-05-0.129D-04-0.238D-04 0.487D-03-0.309D-02
 Coeff-Com: -0.363D-02 0.290D-01-0.887D-01 0.105D+00 0.961D+00
 Coeff:      0.141D-06-0.239D-05-0.129D-04-0.238D-04 0.487D-03-0.309D-02
 Coeff:     -0.363D-02 0.290D-01-0.887D-01 0.105D+00 0.961D+00
 Gap=     0.377 Goal=   None    Shift=    0.000
 RMSDP=2.51D-08 MaxDP=8.05D-07 DE=-2.05D-12 OVMax= 1.01D-07

 Cycle  12  Pass 1  IDiag  1:
 E= -230.746408238935     Delta-E=       -0.000000000006 Rises=F Damp=F
 DIIS: error= 4.34D-09 at cycle  12 NSaved=  12.
 NSaved=12 IEnMin=12 EnMin= -230.746408238935     IErMin=12 ErrMin= 4.34D-09
 ErrMax= 4.34D-09 EMaxC= 1.00D-01 BMatC= 2.07D-15 BMatP= 2.63D-14
 IDIUse=1 WtCom= 1.00D+00 WtEn= 0.00D+00
 Coeff-Com: -0.121D-07 0.381D-06 0.277D-05 0.116D-05-0.101D-03 0.773D-03
 Coeff-Com:  0.667D-03-0.731D-02 0.296D-01-0.110D+00-0.123D+00 0.121D+01
 Coeff:     -0.121D-07 0.381D-06 0.277D-05 0.116D-05-0.101D-03 0.773D-03
 Coeff:      0.667D-03-0.731D-02 0.296D-01-0.110D+00-0.123D+00 0.121D+01
 Gap=     0.377 Goal=   None    Shift=    0.000
 RMSDP=2.80D-08 MaxDP=7.62D-07 DE=-5.68D-12 OVMax= 4.30D-08

 Cycle  13  Pass 1  IDiag  1:
 E= -230.746408238932     Delta-E=        0.000000000003 Rises=F Damp=F
 DIIS: error= 8.41D-10 at cycle  13 NSaved=  13.
 NSaved=13 IEnMin=12 EnMin= -230.746408238935     IErMin=13 ErrMin= 8.41D-10
 ErrMax= 8.41D-10 EMaxC= 1.00D-01 BMatC= 4.68D-17 BMatP= 2.07D-15
 IDIUse=1 WtCom= 1.00D+00 WtEn= 0.00D+00
 Coeff-Com: -0.190D-08-0.185D-08-0.156D-06 0.510D-06 0.529D-05-0.515D-04
 Coeff-Com: -0.413D-04 0.566D-03-0.322D-02 0.195D-01-0.608D-02-0.253D+00
 Coeff-Com:  0.124D+01
 Coeff:     -0.190D-08-0.185D-08-0.156D-06 0.510D-06 0.529D-05-0.515D-04
 Coeff:     -0.413D-04 0.566D-03-0.322D-02 0.195D-01-0.608D-02-0.253D+00
 Coeff:      0.124D+01
 Gap=     0.377 Goal=   None    Shift=    0.000
 RMSDP=4.62D-09 MaxDP=1.33D-07 DE= 3.07D-12 OVMax= 6.30D-09

 SCF Done:  E(RHF) =  -230.746408239     A.U. after   13 cycles
             Convg  =    0.4616D-08             -V/T =  2.0013
 KE= 2.304484070772D+02 PE=-9.440700470823D+02 EE= 2.792352944879D+02
 Leave Link  502 at Fri Dec  3 11:53:19 2021, MaxMem=  498073600 cpu:      56.4
 (Enter /apps/software//g09/l801.exe)
 ExpMin= 3.60D-02 ExpMax= 4.56D+03 ExpMxC= 6.82D+02 IAcc=3 IRadAn=         5 AccDes= 0.00D+00
 HarFok:  IExCor=  205 AccDes= 0.00D+00 IRadAn=         5 IDoV=-2
 ScaDFX=  1.000000  1.000000  1.000000  1.000000
 Largest valence mixing into a core orbital is  1.51D-04
 Largest core mixing into a valence orbital is  4.01D-05
 Range of M.O.s used for correlation:     7   174
 NBasis=   174 NAE=    21 NBE=    21 NFC=     6 NFV=     0
 NROrb=    168 NOA=    15 NOB=    15 NVA=   153 NVB=   153

 **** Warning!!: The largest alpha MO coefficient is  0.16688546D+03

 Leave Link  801 at Fri Dec  3 11:53:19 2021, MaxMem=  498073600 cpu:       1.2
 (Enter /apps/software//g09/l906.exe)
 Frozen-core derivative calculation, NFC=   6 NFV=   0.
 FulOut=F Deriv=T AODrv=F NAtomX=    12
   MMem=         328  MDisk=          15 MDiskD=          15
  W3Min=      657720 MinDsk=     1009670 NBas6D=         180
 NBas2D=       16542    NTT=       16290    LW2=     2040000
    MDV=   497692964 MDiskM=       38247 NBas2p=        8385
 Fully in-core method, ICMem=   280919484.
 IMap=   1   2   3   4   5   6   7   8   9  10  11  12  13  14  15  16  17  18  19  20
 IMap=  21
 JobTyp=1 Pass  1 fully in-core, NPsUse=  6.
 Compute canonical integrals, IntTyp=   4.
 Symmetry not used in FoFDir.
 MinBra= 0 MaxBra= 2 Meth= 1.
 IRaf=       0 NMat=   1 IRICut=       1 DoRegI=T DoRafI=F ISym2E= 0 JSym2E=0.
 Spin components of T(2) and E(2):
     alpha-alpha T2 =       0.4264347568D-01 E2=     -0.1081854495D+00
     alpha-beta  T2 =       0.2243011115D+00 E2=     -0.6145244446D+00
     beta-beta   T2 =       0.4264347568D-01 E2=     -0.1081854495D+00
 The integrals were generated   1 times.
 ANorm=    0.1144372345D+01
 E2 =    -0.8308953437D+00 EUMP2 =    -0.23157730358265D+03
 Leave Link  906 at Fri Dec  3 11:53:44 2021, MaxMem=  498073600 cpu:     149.7
 (Enter /apps/software//g09/l1002.exe)
 Minotr:  Closed shell wavefunction.
          Computing MP2/KS-MP2 derivatives.
          Using Z-Vector for PSCF gradient.
          Skipping F1 and S1 gradient terms here.
          Frozen-core window.
          Direct CPHF calculation.
          Differentiating once with respect to electric field.
                with respect to dipole field.
          Electric field/nuclear overlap derivatives assumed to be zero.
          Using symmetry in CPHF.
          Requested convergence is 1.0D-10 RMS, and 1.0D-09 maximum.
          NewPWx=F KeepS1=T KeepF1=T KeepIn=T MapXYZ=F SortEE=F KeepMc=T.
          MDV=     498073500 using IRadAn=       0.
          Keep R1 ints in memory in canonical form, NReq=133511598.
 Symmetry not used in FoFDir.
 MinBra= 0 MaxBra= 2 Meth= 1.
 IRaf=       0 NMat=   1 IRICut=       1 DoRegI=T DoRafI=F ISym2E= 0 JSym2E=0.
          Solving linear equations separately, MaxMat=       0.
          There are     1 degrees of freedom in the 1st order CPHF.  IDoFFX=0.
 LinEq1:  Iter=  0 NonCon=     1 RMS=3.40D-03 Max=7.15D-02
 AX will form     1 AO Fock derivatives at one time.
 LinEq1:  Iter=  1 NonCon=     1 RMS=8.32D-04 Max=1.49D-02
 LinEq1:  Iter=  2 NonCon=     1 RMS=2.40D-04 Max=5.38D-03
 LinEq1:  Iter=  3 NonCon=     1 RMS=5.13D-05 Max=7.73D-04
 LinEq1:  Iter=  4 NonCon=     1 RMS=8.20D-06 Max=9.89D-05
 LinEq1:  Iter=  5 NonCon=     1 RMS=1.24D-06 Max=2.28D-05
 LinEq1:  Iter=  6 NonCon=     1 RMS=4.59D-07 Max=9.25D-06
 LinEq1:  Iter=  7 NonCon=     1 RMS=1.21D-07 Max=1.77D-06
 LinEq1:  Iter=  8 NonCon=     1 RMS=1.45D-08 Max=1.59D-07
 LinEq1:  Iter=  9 NonCon=     1 RMS=2.04D-09 Max=2.09D-08
 LinEq1:  Iter= 10 NonCon=     1 RMS=4.12D-10 Max=5.47D-09
 LinEq1:  Iter= 11 NonCon=     1 RMS=1.00D-10 Max=1.22D-09
 LinEq1:  Iter= 12 NonCon=     0 RMS=1.70D-11 Max=2.36D-10
 Linear equations converged to 1.000D-10 1.000D-09 after    12 iterations.
 End of Minotr Frequency-dependent properties file   721 does not exist.
 End of Minotr Frequency-dependent properties file   722 does not exist.
 Leave Link 1002 at Fri Dec  3 11:53:53 2021, MaxMem=  498073600 cpu:      56.5
 (Enter /apps/software//g09/l601.exe)
 Copying SCF densities to generalized density rwf, IOpCl= 0 IROHF=0.

 **********************************************************************

            Population analysis using the MP2 density.

 **********************************************************************

 Orbital symmetries:
       Occupied  (A) (B) (B) (A) (A) (B) (A) (B) (B) (A) (A) (A)
                 (B) (B) (B) (B) (A) (A) (A) (B) (B)
       Virtual   (A) (B) (B) (A) (A) (B) (A) (A) (A) (B) (B) (A)
                 (B) (A) (B) (B) (A) (A) (B) (A) (A) (A) (A) (B)
                 (B) (B) (B) (A) (B) (A) (A) (B) (A) (B) (B) (A)
                 (B) (A) (B) (A) (A) (B) (B) (B) (A) (B) (A) (B)
                 (A) (B) (A) (A) (B) (B) (A) (A) (A) (A) (B) (B)
                 (B) (B) (A) (B) (A) (A) (B) (A) (A) (B) (A) (B)
                 (B) (A) (B) (B) (B) (A) (A) (A) (B) (A) (B) (B)
                 (B) (A) (B) (A) (A) (A) (A) (B) (B) (A) (B) (B)
                 (A) (A) (B) (B) (A) (B) (B) (B) (A) (A) (B) (A)
                 (A) (B) (A) (A) (A) (A) (B) (B) (B) (B) (B) (A)
                 (A) (B) (B) (B) (A) (A) (B) (A) (B) (A) (A) (A)
                 (A) (B) (B) (A) (A) (B) (B) (A) (B) (A) (A) (B)
                 (B) (B) (A) (A) (B) (B) (A) (A) (B)
 The electronic state is 1-A.
 Alpha  occ. eigenvalues --  -11.23930 -11.23890 -11.23854 -11.23768 -11.23722
 Alpha  occ. eigenvalues --  -11.23682  -1.15291  -1.01566  -1.01534  -0.82378
 Alpha  occ. eigenvalues --   -0.82370  -0.71058  -0.64556  -0.61794  -0.59034
 Alpha  occ. eigenvalues --   -0.58785  -0.50734  -0.49698  -0.48964  -0.33486
 Alpha  occ. eigenvalues --   -0.33458
 Alpha virt. eigenvalues --    0.04195   0.04903   0.04964   0.06624   0.07023
 Alpha virt. eigenvalues --    0.09135   0.10247   0.10957   0.12179   0.14515
 Alpha virt. eigenvalues --    0.15181   0.16337   0.16359   0.18116   0.18167
 Alpha virt. eigenvalues --    0.18592   0.18797   0.19217   0.19637   0.21056
 Alpha virt. eigenvalues --    0.21102   0.21723   0.21768   0.22653   0.22659
 Alpha virt. eigenvalues --    0.23933   0.24181   0.25145   0.25349   0.27568
 Alpha virt. eigenvalues --    0.29889   0.30106   0.33707   0.35360   0.40013
 Alpha virt. eigenvalues --    0.40444   0.41122   0.43058   0.43150   0.47306
 Alpha virt. eigenvalues --    0.49939   0.50366   0.51146   0.60502   0.60782
 Alpha virt. eigenvalues --    0.70238   0.72311   0.72469   0.72520   0.73567
 Alpha virt. eigenvalues --    0.74850   0.75497   0.75779   0.76495   0.80319
 Alpha virt. eigenvalues --    0.81997   0.82089   0.86844   0.87809   0.90481
 Alpha virt. eigenvalues --    0.91803   0.94010   0.95329   0.96014   0.96138
 Alpha virt. eigenvalues --    0.97703   1.01860   1.05647   1.07922   1.09336
 Alpha virt. eigenvalues --    1.11166   1.11581   1.12563   1.21355   1.23414
 Alpha virt. eigenvalues --    1.29900   1.33265   1.34530   1.40432   1.41209
 Alpha virt. eigenvalues --    1.53742   1.55562   1.71505   1.77502   1.78749
 Alpha virt. eigenvalues --    1.79894   1.82882   1.84623   1.85336   1.90224
 Alpha virt. eigenvalues --    1.91094   1.91645   1.93615   1.99650   2.05596
 Alpha virt. eigenvalues --    2.06083   2.10114   2.10243   2.12955   2.16208
 Alpha virt. eigenvalues --    2.18996   2.19224   2.29357   2.31377   2.32951
 Alpha virt. eigenvalues --    2.33792   2.33802   2.38996   2.39496   2.62499
 Alpha virt. eigenvalues --    2.62739   2.69703   2.74310   2.75304   2.81482
 Alpha virt. eigenvalues --    2.82368   2.84701   2.94634   2.96057   2.98796
 Alpha virt. eigenvalues --    2.98953   3.01501   3.02951   3.04596   3.05160
 Alpha virt. eigenvalues --    3.07780   3.18477   3.20582   3.22193   3.28978
 Alpha virt. eigenvalues --    3.31638   3.31784   3.35411   3.48299   3.54297
 Alpha virt. eigenvalues --    3.74575   3.77499   3.89588   3.90518   3.92146
 Alpha virt. eigenvalues --    4.02007   4.39453   4.41935   4.47642   4.55237
 Alpha virt. eigenvalues --    4.60004   5.18224  24.75090  25.12663  25.13563
 Alpha virt. eigenvalues --   25.25124  25.25895  25.32878
          Condensed to atoms (all electrons):
              1          2          3          4          5          6
     1  C   12.790612  -6.552702   5.656925  -5.066254   5.564512  -6.485725
     2  C   -6.552702  12.789858  -6.485293   5.564512  -5.065960   5.656804
     3  C    5.656925  -6.485293  12.719868  -6.485725   5.656804  -5.172817
     4  C   -5.066254   5.564512  -6.485725  12.790612  -6.552702   5.656925
     5  C    5.564512  -5.065960   5.656804  -6.552702  12.789858  -6.485293
     6  C   -6.485725   5.656804  -5.172817   5.656925  -6.485293  12.719868
     7  H    0.810735  -0.394805   0.211550  -0.149792   0.218707  -0.422012
     8  H   -0.394805   0.810630  -0.421908   0.218661  -0.149782   0.211574
     9  H    0.232561  -0.453874   0.875882  -0.453907   0.232573  -0.164156
    10  H   -0.149792   0.218707  -0.422012   0.810735  -0.394805   0.211550
    11  H    0.218661  -0.149782   0.211574  -0.394805   0.810630  -0.421908
    12  H   -0.453907   0.232573  -0.164156   0.232561  -0.453874   0.875882
              7          8          9         10         11         12
     1  C    0.810735  -0.394805   0.232561  -0.149792   0.218661  -0.453907
     2  C   -0.394805   0.810630  -0.453874   0.218707  -0.149782   0.232573
     3  C    0.211550  -0.421908   0.875882  -0.422012   0.211574  -0.164156
     4  C   -0.149792   0.218661  -0.453907   0.810735  -0.394805   0.232561
     5  C    0.218707  -0.149782   0.232573  -0.394805   0.810630  -0.453874
     6  C   -0.422012   0.211574  -0.164156   0.211550  -0.421908   0.875882
     7  H    0.604077  -0.025902   0.005309  -0.002752   0.007330  -0.039170
     8  H   -0.025902   0.604044  -0.039148   0.007330  -0.002753   0.005312
     9  H    0.005309  -0.039148   0.632364  -0.039170   0.005312  -0.002454
    10  H   -0.002752   0.007330  -0.039170   0.604077  -0.025902   0.005309
    11  H    0.007330  -0.002753   0.005312  -0.025902   0.604044  -0.039148
    12  H   -0.039170   0.005312  -0.002454   0.005309  -0.039148   0.632364
 Mulliken atomic charges:
              1
     1  C   -0.170822
     2  C   -0.170667
     3  C   -0.180693
     4  C   -0.170822
     5  C   -0.170667
     6  C   -0.180693
     7  H    0.176725
     8  H    0.176748
     9  H    0.168708
    10  H    0.176725
    11  H    0.176748
    12  H    0.168708
 Sum of Mulliken atomic charges =   0.00000
 Mulliken charges with hydrogens summed into heavy atoms:
              1
     1  C    0.005903
     2  C    0.006082
     3  C   -0.011985
     4  C    0.005903
     5  C    0.006082
     6  C   -0.011985
 Sum of Mulliken charges with hydrogens summed into heavy atoms =   0.00000
 Electronic spatial extent (au):  <R**2>=            458.9052
 Charge=              0.0000 electrons
 Dipole moment (field-independent basis, Debye):
    X=              0.0000    Y=              0.0000    Z=              0.0019  Tot=              0.0019
 Quadrupole moment (field-independent basis, Debye-Ang):
   XX=            -32.7267   YY=            -32.6239   ZZ=            -40.7295
   XY=             -0.0841   XZ=              0.0000   YZ=              0.0000
 Traceless Quadrupole moment (field-independent basis, Debye-Ang):
   XX=              2.6334   YY=              2.7361   ZZ=             -5.3695
   XY=             -0.0841   XZ=              0.0000   YZ=              0.0000
 Octapole moment (field-independent basis, Debye-Ang**2):
  XXX=              0.0000  YYY=              0.0000  ZZZ=              0.0158  XYY=              0.0000
  XXY=              0.0000  XXZ=              0.7784  XZZ=              0.0000  YZZ=              0.0000
  YYZ=             -0.8117  XYZ=              1.3168
 Hexadecapole moment (field-independent basis, Debye-Ang**3):
 XXXX=           -278.6382 YYYY=           -278.4322 ZZZZ=            -53.2418 XXXY=             -0.6035
 XXXZ=              0.0000 YYYX=              0.4220 YYYZ=              0.0000 ZZZX=              0.0000
 ZZZY=              0.0000 XXYY=            -93.2056 XXZZ=            -65.8860 YYZZ=            -66.1461
 XXYZ=              0.0000 YYXZ=              0.0000 ZZXY=              0.2111
 N-N= 2.036399372783D+02 E-N=-9.449057209393D+02  KE= 2.314654066587D+02
 Symmetry A    KE= 1.143932404223D+02
 Symmetry B    KE= 1.170721662363D+02
 No NMR shielding tensors so no spin-rotation constants.
 Leave Link  601 at Fri Dec  3 11:53:54 2021, MaxMem=  498073600 cpu:       1.9
 (Enter /apps/software//g09/l9999.exe)
 1\1\GINC-DLT06\SP\RMP2-FC\6-311++G(d,p)\C6H6\ITAMAR\03-Dec-2021\0\\#P 
 MP2/6-311++G** DENSITY=MP2\\Boat-15\\0,1\C,0,-0.002172,1.393469,0.0612
 54\C,0,1.207772,0.694861,0.061254\C,0,1.193472,-0.689068,-0.12082\C,0,
 0.002172,-1.393469,0.061254\C,0,-1.207772,-0.694861,0.061254\C,0,-1.19
 3472,0.689068,-0.12082\H,0,-0.008593,2.476826,0.103094\H,0,2.149236,1.
 2309,0.103398\H,0,2.13003,-1.229759,-0.208181\H,0,0.008593,-2.476826,0
 .103094\H,0,-2.149236,-1.2309,0.103398\H,0,-2.13003,1.229759,-0.208181
 \\Version=EM64L-G09RevA.02\State=1-A\HF=-230.7464082\MP2=-231.5773036\
 RMSD=4.616e-09\Dipole=0.,0.,-0.0007329\Quadrupole=1.9591367,2.0329215,
 -3.9920583,0.0633166,0.,0.\PG=C02 [X(C6H6)]\\@


 YOU SHOULDN'T LET PEOPLE DRIVE YOU CRAZY
 WHEN YOU KNOW IT'S WITHIN WALKING DISTANCE.
 Job cpu time:  0 days  0 hours  4 minutes 31.9 seconds.
 File lengths (MBytes):  RWF=     14 Int=      0 D2E=      0 Chk=      4 Scr=      1
 Normal termination of Gaussian 09 at Fri Dec  3 11:53:54 2021.
