Pyramid-25                                                              
SP        RMP2-FC                                                     6-311++G(d,p)       
Number of atoms                            I               12
Info1-9                                    I   N=           9
          19          19           0           0           0         110
           1           2           1
Full Title                                 C   N=           1
Pyramid-25  
Route                                      C   N=           3
#P MP2/6-311++G** nosymm Density=MP2
Charge                                     I                0
Multiplicity                               I                1
Number of electrons                        I               42
Number of alpha electrons                  I               21
Number of beta electrons                   I               21
Number of basis functions                  I              174
Number of independent functions            I              174
Number of point charges in /Mol/           I                0
Number of translation vectors              I                0
Atomic numbers                             I   N=          12
           6           6           6           6           6           6
           1           1           1           1           1           1
Nuclear charges                            R   N=          12
  6.00000000E+00  6.00000000E+00  6.00000000E+00  6.00000000E+00  6.00000000E+00
  6.00000000E+00  1.00000000E+00  1.00000000E+00  1.00000000E+00  1.00000000E+00
  1.00000000E+00  1.00000000E+00
Current cartesian coordinates              R   N=          36
 -1.32188714E+00  2.28947140E+00  1.23887837E-01  1.32188714E+00  2.28947140E+00
  1.23887837E-01  2.64387918E+00  0.00000000E+00  1.23947363E-01  1.32188714E+00
 -2.28947140E+00  1.23887837E-01 -1.32188714E+00 -2.28947140E+00  1.23887837E-01
 -2.64387918E+00  0.00000000E+00  1.23951143E-01 -2.25171813E+00  3.90045360E+00
 -7.43475063E-01  2.25171688E+00  3.90045360E+00 -7.43476385E-01  4.50391533E+00
  0.00000000E+00 -7.43402403E-01  2.25171688E+00 -3.90045360E+00 -7.43476385E-01
 -2.25171813E+00 -3.90045360E+00 -7.43475063E-01 -4.50391279E+00  0.00000000E+00
 -7.43394088E-01
Number of symbols in /Mol/                 I                0
Force Field                                I                0
Atom Types                                 C   N=          12
                                                            
                                                            
                        
Int Atom Types                             I   N=          12
           0           0           0           0           0           0
           0           0           0           0           0           0
MM charges                                 R   N=          12
  0.00000000E+00  0.00000000E+00  0.00000000E+00  0.00000000E+00  0.00000000E+00
  0.00000000E+00  0.00000000E+00  0.00000000E+00  0.00000000E+00  0.00000000E+00
  0.00000000E+00  0.00000000E+00
Integer atomic weights                     I   N=          12
          12          12          12          12          12          12
           1           1           1           1           1           1
Real atomic weights                        R   N=          12
  1.20000000E+01  1.20000000E+01  1.20000000E+01  1.20000000E+01  1.20000000E+01
  1.20000000E+01  1.00782504E+00  1.00782504E+00  1.00782504E+00  1.00782504E+00
  1.00782504E+00  1.00782504E+00
Atom fragment info                         I   N=          12
           0           0           0           0           0           0
           0           0           0           0           0           0
Atom residue num                           I   N=          12
           0           0           0           0           0           0
           0           0           0           0           0           0
Nuclear spins                              I   N=          12
           0           0           0           0           0           0
           1           1           1           1           1           1
Nuclear ZEff                               R   N=          12
 -3.60000000E+00 -3.60000000E+00 -3.60000000E+00 -3.60000000E+00 -3.60000000E+00
 -3.60000000E+00 -1.00000000E+00 -1.00000000E+00 -1.00000000E+00 -1.00000000E+00
 -1.00000000E+00 -1.00000000E+00
Nuclear ZNuc                               R   N=          12
  6.00000000E+00  6.00000000E+00  6.00000000E+00  6.00000000E+00  6.00000000E+00
  6.00000000E+00  1.00000000E+00  1.00000000E+00  1.00000000E+00  1.00000000E+00
  1.00000000E+00  1.00000000E+00
Nuclear QMom                               R   N=          12
  0.00000000E+00  0.00000000E+00  0.00000000E+00  0.00000000E+00  0.00000000E+00
  0.00000000E+00  0.00000000E+00  0.00000000E+00  0.00000000E+00  0.00000000E+00
  0.00000000E+00  0.00000000E+00
Nuclear GFac                               R   N=          12
  0.00000000E+00  0.00000000E+00  0.00000000E+00  0.00000000E+00  0.00000000E+00
  0.00000000E+00  2.79284600E+00  2.79284600E+00  2.79284600E+00  2.79284600E+00
  2.79284600E+00  2.79284600E+00
MicOpt                                     I   N=          12
          -1          -1          -1          -1          -1          -1
          -1          -1          -1          -1          -1          -1
Number of residues                         I                0
Number of secondary structures             I                0
Number of contracted shells                I               66
Number of primitive shells                 I              120
Pure/Cartesian d shells                    I                0
Pure/Cartesian f shells                    I                0
Highest angular momentum                   I                2
Largest degree of contraction              I                6
Shell types                                I   N=          66
           0          -1          -1          -1          -1          -2
           0          -1          -1          -1          -1          -2
           0          -1          -1          -1          -1          -2
           0          -1          -1          -1          -1          -2
           0          -1          -1          -1          -1          -2
           0          -1          -1          -1          -1          -2
           0           0           0           0           1           0
           0           0           0           1           0           0
           0           0           1           0           0           0
           0           1           0           0           0           0
           1           0           0           0           0           1
Number of primitives per shell             I   N=          66
           6           3           1           1           1           1
           6           3           1           1           1           1
           6           3           1           1           1           1
           6           3           1           1           1           1
           6           3           1           1           1           1
           6           3           1           1           1           1
           3           1           1           1           1           3
           1           1           1           1           3           1
           1           1           1           3           1           1
           1           1           3           1           1           1
           1           3           1           1           1           1
Shell to atom map                          I   N=          66
           1           1           1           1           1           1
           2           2           2           2           2           2
           3           3           3           3           3           3
           4           4           4           4           4           4
           5           5           5           5           5           5
           6           6           6           6           6           6
           7           7           7           7           7           8
           8           8           8           8           9           9
           9           9           9          10          10          10
          10          10          11          11          11          11
          11          12          12          12          12          12
Primitive exponents                        R   N=         120
  4.56324000E+03  6.82024000E+02  1.54973000E+02  4.44553000E+01  1.30290000E+01
  1.82773000E+00  2.09642000E+01  4.80331000E+00  1.45933000E+00  4.83456000E-01
  1.45585000E-01  4.38000000E-02  6.26000000E-01  4.56324000E+03  6.82024000E+02
  1.54973000E+02  4.44553000E+01  1.30290000E+01  1.82773000E+00  2.09642000E+01
  4.80331000E+00  1.45933000E+00  4.83456000E-01  1.45585000E-01  4.38000000E-02
  6.26000000E-01  4.56324000E+03  6.82024000E+02  1.54973000E+02  4.44553000E+01
  1.30290000E+01  1.82773000E+00  2.09642000E+01  4.80331000E+00  1.45933000E+00
  4.83456000E-01  1.45585000E-01  4.38000000E-02  6.26000000E-01  4.56324000E+03
  6.82024000E+02  1.54973000E+02  4.44553000E+01  1.30290000E+01  1.82773000E+00
  2.09642000E+01  4.80331000E+00  1.45933000E+00  4.83456000E-01  1.45585000E-01
  4.38000000E-02  6.26000000E-01  4.56324000E+03  6.82024000E+02  1.54973000E+02
  4.44553000E+01  1.30290000E+01  1.82773000E+00  2.09642000E+01  4.80331000E+00
  1.45933000E+00  4.83456000E-01  1.45585000E-01  4.38000000E-02  6.26000000E-01
  4.56324000E+03  6.82024000E+02  1.54973000E+02  4.44553000E+01  1.30290000E+01
  1.82773000E+00  2.09642000E+01  4.80331000E+00  1.45933000E+00  4.83456000E-01
  1.45585000E-01  4.38000000E-02  6.26000000E-01  3.38650000E+01  5.09479000E+00
  1.15879000E+00  3.25840000E-01  1.02741000E-01  3.60000000E-02  7.50000000E-01
  3.38650000E+01  5.09479000E+00  1.15879000E+00  3.25840000E-01  1.02741000E-01
  3.60000000E-02  7.50000000E-01  3.38650000E+01  5.09479000E+00  1.15879000E+00
  3.25840000E-01  1.02741000E-01  3.60000000E-02  7.50000000E-01  3.38650000E+01
  5.09479000E+00  1.15879000E+00  3.25840000E-01  1.02741000E-01  3.60000000E-02
  7.50000000E-01  3.38650000E+01  5.09479000E+00  1.15879000E+00  3.25840000E-01
  1.02741000E-01  3.60000000E-02  7.50000000E-01  3.38650000E+01  5.09479000E+00
  1.15879000E+00  3.25840000E-01  1.02741000E-01  3.60000000E-02  7.50000000E-01
Contraction coefficients                   R   N=         120
  1.96665025E-03  1.52306019E-02  7.61269097E-02  2.60801033E-01  6.16462078E-01
  2.21006028E-01  1.14660081E-01  9.19999648E-01 -3.03068213E-03  1.00000000E+00
  1.00000000E+00  1.00000000E+00  1.00000000E+00  1.96665025E-03  1.52306019E-02
  7.61269097E-02  2.60801033E-01  6.16462078E-01  2.21006028E-01  1.14660081E-01
  9.19999648E-01 -3.03068213E-03  1.00000000E+00  1.00000000E+00  1.00000000E+00
  1.00000000E+00  1.96665025E-03  1.52306019E-02  7.61269097E-02  2.60801033E-01
  6.16462078E-01  2.21006028E-01  1.14660081E-01  9.19999648E-01 -3.03068213E-03
  1.00000000E+00  1.00000000E+00  1.00000000E+00  1.00000000E+00  1.96665025E-03
  1.52306019E-02  7.61269097E-02  2.60801033E-01  6.16462078E-01  2.21006028E-01
  1.14660081E-01  9.19999648E-01 -3.03068213E-03  1.00000000E+00  1.00000000E+00
  1.00000000E+00  1.00000000E+00  1.96665025E-03  1.52306019E-02  7.61269097E-02
  2.60801033E-01  6.16462078E-01  2.21006028E-01  1.14660081E-01  9.19999648E-01
 -3.03068213E-03  1.00000000E+00  1.00000000E+00  1.00000000E+00  1.00000000E+00
  1.96665025E-03  1.52306019E-02  7.61269097E-02  2.60801033E-01  6.16462078E-01
  2.21006028E-01  1.14660081E-01  9.19999648E-01 -3.03068213E-03  1.00000000E+00
  1.00000000E+00  1.00000000E+00  1.00000000E+00  2.54938145E-02  1.90373109E-01
  8.52161486E-01  1.00000000E+00  1.00000000E+00  1.00000000E+00  1.00000000E+00
  2.54938145E-02  1.90373109E-01  8.52161486E-01  1.00000000E+00  1.00000000E+00
  1.00000000E+00  1.00000000E+00  2.54938145E-02  1.90373109E-01  8.52161486E-01
  1.00000000E+00  1.00000000E+00  1.00000000E+00  1.00000000E+00  2.54938145E-02
  1.90373109E-01  8.52161486E-01  1.00000000E+00  1.00000000E+00  1.00000000E+00
  1.00000000E+00  2.54938145E-02  1.90373109E-01  8.52161486E-01  1.00000000E+00
  1.00000000E+00  1.00000000E+00  1.00000000E+00  2.54938145E-02  1.90373109E-01
  8.52161486E-01  1.00000000E+00  1.00000000E+00  1.00000000E+00  1.00000000E+00
P(S=P) Contraction coefficients            R   N=         120
  0.00000000E+00  0.00000000E+00  0.00000000E+00  0.00000000E+00  0.00000000E+00
  0.00000000E+00  4.02486927E-02  2.37593957E-01  8.15853851E-01  1.00000000E+00
  1.00000000E+00  1.00000000E+00  0.00000000E+00  0.00000000E+00  0.00000000E+00
  0.00000000E+00  0.00000000E+00  0.00000000E+00  0.00000000E+00  4.02486927E-02
  2.37593957E-01  8.15853851E-01  1.00000000E+00  1.00000000E+00  1.00000000E+00
  0.00000000E+00  0.00000000E+00  0.00000000E+00  0.00000000E+00  0.00000000E+00
  0.00000000E+00  0.00000000E+00  4.02486927E-02  2.37593957E-01  8.15853851E-01
  1.00000000E+00  1.00000000E+00  1.00000000E+00  0.00000000E+00  0.00000000E+00
  0.00000000E+00  0.00000000E+00  0.00000000E+00  0.00000000E+00  0.00000000E+00
  4.02486927E-02  2.37593957E-01  8.15853851E-01  1.00000000E+00  1.00000000E+00
  1.00000000E+00  0.00000000E+00  0.00000000E+00  0.00000000E+00  0.00000000E+00
  0.00000000E+00  0.00000000E+00  0.00000000E+00  4.02486927E-02  2.37593957E-01
  8.15853851E-01  1.00000000E+00  1.00000000E+00  1.00000000E+00  0.00000000E+00
  0.00000000E+00  0.00000000E+00  0.00000000E+00  0.00000000E+00  0.00000000E+00
  0.00000000E+00  4.02486927E-02  2.37593957E-01  8.15853851E-01  1.00000000E+00
  1.00000000E+00  1.00000000E+00  0.00000000E+00  0.00000000E+00  0.00000000E+00
  0.00000000E+00  0.00000000E+00  0.00000000E+00  0.00000000E+00  0.00000000E+00
  0.00000000E+00  0.00000000E+00  0.00000000E+00  0.00000000E+00  0.00000000E+00
  0.00000000E+00  0.00000000E+00  0.00000000E+00  0.00000000E+00  0.00000000E+00
  0.00000000E+00  0.00000000E+00  0.00000000E+00  0.00000000E+00  0.00000000E+00
  0.00000000E+00  0.00000000E+00  0.00000000E+00  0.00000000E+00  0.00000000E+00
  0.00000000E+00  0.00000000E+00  0.00000000E+00  0.00000000E+00  0.00000000E+00
  0.00000000E+00  0.00000000E+00  0.00000000E+00  0.00000000E+00  0.00000000E+00
  0.00000000E+00  0.00000000E+00  0.00000000E+00  0.00000000E+00  0.00000000E+00
Coordinates of each shell                  R   N=         198
 -1.32188714E+00  2.28947140E+00  1.23887837E-01 -1.32188714E+00  2.28947140E+00
  1.23887837E-01 -1.32188714E+00  2.28947140E+00  1.23887837E-01 -1.32188714E+00
  2.28947140E+00  1.23887837E-01 -1.32188714E+00  2.28947140E+00  1.23887837E-01
 -1.32188714E+00  2.28947140E+00  1.23887837E-01  1.32188714E+00  2.28947140E+00
  1.23887837E-01  1.32188714E+00  2.28947140E+00  1.23887837E-01  1.32188714E+00
  2.28947140E+00  1.23887837E-01  1.32188714E+00  2.28947140E+00  1.23887837E-01
  1.32188714E+00  2.28947140E+00  1.23887837E-01  1.32188714E+00  2.28947140E+00
  1.23887837E-01  2.64387918E+00  0.00000000E+00  1.23947363E-01  2.64387918E+00
  0.00000000E+00  1.23947363E-01  2.64387918E+00  0.00000000E+00  1.23947363E-01
  2.64387918E+00  0.00000000E+00  1.23947363E-01  2.64387918E+00  0.00000000E+00
  1.23947363E-01  2.64387918E+00  0.00000000E+00  1.23947363E-01  1.32188714E+00
 -2.28947140E+00  1.23887837E-01  1.32188714E+00 -2.28947140E+00  1.23887837E-01
  1.32188714E+00 -2.28947140E+00  1.23887837E-01  1.32188714E+00 -2.28947140E+00
  1.23887837E-01  1.32188714E+00 -2.28947140E+00  1.23887837E-01  1.32188714E+00
 -2.28947140E+00  1.23887837E-01 -1.32188714E+00 -2.28947140E+00  1.23887837E-01
 -1.32188714E+00 -2.28947140E+00  1.23887837E-01 -1.32188714E+00 -2.28947140E+00
  1.23887837E-01 -1.32188714E+00 -2.28947140E+00  1.23887837E-01 -1.32188714E+00
 -2.28947140E+00  1.23887837E-01 -1.32188714E+00 -2.28947140E+00  1.23887837E-01
 -2.64387918E+00  0.00000000E+00  1.23951143E-01 -2.64387918E+00  0.00000000E+00
  1.23951143E-01 -2.64387918E+00  0.00000000E+00  1.23951143E-01 -2.64387918E+00
  0.00000000E+00  1.23951143E-01 -2.64387918E+00  0.00000000E+00  1.23951143E-01
 -2.64387918E+00  0.00000000E+00  1.23951143E-01 -2.25171813E+00  3.90045360E+00
 -7.43475063E-01 -2.25171813E+00  3.90045360E+00 -7.43475063E-01 -2.25171813E+00
  3.90045360E+00 -7.43475063E-01 -2.25171813E+00  3.90045360E+00 -7.43475063E-01
 -2.25171813E+00  3.90045360E+00 -7.43475063E-01  2.25171688E+00  3.90045360E+00
 -7.43476385E-01  2.25171688E+00  3.90045360E+00 -7.43476385E-01  2.25171688E+00
  3.90045360E+00 -7.43476385E-01  2.25171688E+00  3.90045360E+00 -7.43476385E-01
  2.25171688E+00  3.90045360E+00 -7.43476385E-01  4.50391533E+00  0.00000000E+00
 -7.43402403E-01  4.50391533E+00  0.00000000E+00 -7.43402403E-01  4.50391533E+00
  0.00000000E+00 -7.43402403E-01  4.50391533E+00  0.00000000E+00 -7.43402403E-01
  4.50391533E+00  0.00000000E+00 -7.43402403E-01  2.25171688E+00 -3.90045360E+00
 -7.43476385E-01  2.25171688E+00 -3.90045360E+00 -7.43476385E-01  2.25171688E+00
 -3.90045360E+00 -7.43476385E-01  2.25171688E+00 -3.90045360E+00 -7.43476385E-01
  2.25171688E+00 -3.90045360E+00 -7.43476385E-01 -2.25171813E+00 -3.90045360E+00
 -7.43475063E-01 -2.25171813E+00 -3.90045360E+00 -7.43475063E-01 -2.25171813E+00
 -3.90045360E+00 -7.43475063E-01 -2.25171813E+00 -3.90045360E+00 -7.43475063E-01
 -2.25171813E+00 -3.90045360E+00 -7.43475063E-01 -4.50391279E+00  0.00000000E+00
 -7.43394088E-01 -4.50391279E+00  0.00000000E+00 -7.43394088E-01 -4.50391279E+00
  0.00000000E+00 -7.43394088E-01 -4.50391279E+00  0.00000000E+00 -7.43394088E-01
 -4.50391279E+00  0.00000000E+00 -7.43394088E-01
Num ILSW                                   I              100
ILSW                                       I   N=         100
           0           0           0           0           2           0
           0           0           0           0           0          -1
           5           0           0           0           0           0
           0           0           0           0           0           0
           1           1           0           0           0           0
           0           0      100000           0          -1           0
           0           0           0           0           0           0
           0           0           0           1           0           0
           0 -2000000000           1           0           0           0
           0           0           4          52           0           0
           0           0           0           0           0           0
           0           0           0          12           0           1
           0           0           0           0           0           0
           0           0           0           0           0           0
           0           0           0           0           0           0
           0           0           0           0           0           0
           0           0           0           0
Num RLSW                                   I               52
RLSW                                       R   N=          52
  1.00000000E+00  1.00000000E+00  1.00000000E+00  1.00000000E+00  1.00000000E+00
  0.00000000E+00  0.00000000E+00  1.00000000E+00  0.00000000E+00  0.00000000E+00
  0.00000000E+00  0.00000000E+00  1.00000000E+00  0.00000000E+00  0.00000000E+00
  0.00000000E+00  0.00000000E+00  1.00000000E+00  0.00000000E+00  0.00000000E+00
  0.00000000E+00  0.00000000E+00  1.00000000E+00  0.00000000E+00  0.00000000E+00
  0.00000000E+00  0.00000000E+00  1.00000000E+00  0.00000000E+00  0.00000000E+00
  0.00000000E+00  0.00000000E+00  1.00000000E+00  0.00000000E+00  0.00000000E+00
  0.00000000E+00  0.00000000E+00  0.00000000E+00  1.00000000E+00  1.00000000E+00
  0.00000000E+00  1.00000000E+00  0.00000000E+00  0.00000000E+00  0.00000000E+00
  0.00000000E+00  0.00000000E+00  0.00000000E+00  0.00000000E+00  0.00000000E+00
  0.00000000E+00  0.00000000E+00
MxBond                                     I                3
NBond                                      I   N=          12
           3           3           3           3           3           3
           1           1           1           1           1           1
IBond                                      I   N=          36
           2           6           7           1           3           8
           2           4           9           3           5          10
           4           6          11           1           5          12
           1           0           0           2           0           0
           3           0           0           4           0           0
           5           0           0           6           0           0
RBond                                      R   N=          36
  1.50000000E+00  1.50000000E+00  1.00000000E+00  1.50000000E+00  1.50000000E+00
  1.00000000E+00  1.50000000E+00  1.50000000E+00  1.00000000E+00  1.50000000E+00
  1.50000000E+00  1.00000000E+00  1.50000000E+00  1.50000000E+00  1.00000000E+00
  1.50000000E+00  1.50000000E+00  1.00000000E+00  1.00000000E+00  0.00000000E+00
  0.00000000E+00  1.00000000E+00  0.00000000E+00  0.00000000E+00  1.00000000E+00
  0.00000000E+00  0.00000000E+00  1.00000000E+00  0.00000000E+00  0.00000000E+00
  1.00000000E+00  0.00000000E+00  0.00000000E+00  1.00000000E+00  0.00000000E+00
  0.00000000E+00
Virial Ratio                               R      2.001323488155849E+00
SCF Energy                                 R     -2.307087032464455E+02
MP2 Energy                                 R     -2.315454871892677E+02
Total Energy                               R     -2.315454871892677E+02
Post-SCF wavefunction norm                 R      1.146931300875632E+00
RMS Density                                R      8.845390186156712E-09
Job Status                                 I                1
Nuclear derivative order                   I                0
External E-field                           R   N=          35
  0.00000000E+00  0.00000000E+00  0.00000000E+00  0.00000000E+00  0.00000000E+00
  0.00000000E+00  0.00000000E+00  0.00000000E+00  0.00000000E+00  0.00000000E+00
  0.00000000E+00  0.00000000E+00  0.00000000E+00  0.00000000E+00  0.00000000E+00
  0.00000000E+00  0.00000000E+00  0.00000000E+00  0.00000000E+00  0.00000000E+00
  0.00000000E+00  0.00000000E+00  0.00000000E+00  0.00000000E+00  0.00000000E+00
  0.00000000E+00  0.00000000E+00  0.00000000E+00  0.00000000E+00  0.00000000E+00
  0.00000000E+00  0.00000000E+00  0.00000000E+00  0.00000000E+00  0.00000000E+00
IOpCl                                      I                0
IROHF                                      I                0
Alpha Orbital Energies                     R   N=         174
 -1.12436886E+01 -1.12431331E+01 -1.12431313E+01 -1.12419275E+01 -1.12419258E+01
 -1.12413382E+01 -1.15493341E+00 -1.02019750E+00 -1.02017996E+00 -8.26244788E-01
 -8.26224926E-01 -7.10350492E-01 -6.36772827E-01 -6.21418711E-01 -5.89505285E-01
 -5.89474248E-01 -5.02830777E-01 -4.92146266E-01 -4.92143010E-01 -3.36858269E-01
 -3.36840095E-01  4.21545018E-02  5.36061194E-02  5.36063191E-02  7.14519944E-02
  7.14540363E-02  9.34738490E-02  9.76727816E-02  9.76835015E-02  1.21403837E-01
  1.43544672E-01  1.43545914E-01  1.63758760E-01  1.64752034E-01  1.82864946E-01
  1.82867671E-01  1.91394985E-01  1.94070721E-01  2.01289463E-01  2.01291014E-01
  2.09369565E-01  2.09373384E-01  2.19954614E-01  2.19959157E-01  2.26890530E-01
  2.26892528E-01  2.30365076E-01  2.52739007E-01  2.53823747E-01  2.53824492E-01
  2.87115932E-01  2.87117357E-01  2.97341752E-01  3.05192733E-01  3.50171553E-01
  3.58471710E-01  3.58476946E-01  4.30514063E-01  4.30517109E-01  4.72622783E-01
  4.72645465E-01  4.80142278E-01  5.04978185E-01  5.04986029E-01  5.94477286E-01
  6.04783078E-01  7.13146027E-01  7.16535032E-01  7.30814354E-01  7.30823198E-01
  7.48569368E-01  7.48573584E-01  7.59341143E-01  7.73119740E-01  7.73127646E-01
  7.94086952E-01  7.96220424E-01  7.96231000E-01  8.50925538E-01  8.50928186E-01
  8.74343080E-01  8.82258292E-01  8.82280612E-01  9.08755775E-01  9.08757053E-01
  9.10884260E-01  9.22268010E-01  9.22304736E-01  1.04615608E+00  1.07407771E+00
  1.07408393E+00  1.10777381E+00  1.10898954E+00  1.10899317E+00  1.12636644E+00
  1.19814376E+00  1.21389970E+00  1.24240621E+00  1.48286090E+00  1.48290353E+00
  1.55562135E+00  1.55566167E+00  1.57489105E+00  1.73526484E+00  1.74941501E+00
  1.74947120E+00  1.76838742E+00  1.82173367E+00  1.82173557E+00  1.84984758E+00
  1.84990815E+00  1.98995024E+00  1.99203208E+00  1.99210423E+00  2.00192101E+00
  2.01920006E+00  2.02309469E+00  2.02312254E+00  2.07098849E+00  2.07098953E+00
  2.12938051E+00  2.20092424E+00  2.20095959E+00  2.29251186E+00  2.29253482E+00
  2.30406044E+00  2.37183290E+00  2.37188113E+00  2.42406165E+00  2.42410731E+00
  2.58395619E+00  2.64859905E+00  2.64867508E+00  2.73343223E+00  2.74822188E+00
  2.78785650E+00  2.78789115E+00  2.85206778E+00  2.85210074E+00  2.85521275E+00
  2.96699046E+00  2.96700977E+00  2.96798981E+00  2.97152775E+00  2.97155000E+00
  3.07090312E+00  3.13802367E+00  3.22611508E+00  3.23055629E+00  3.23057140E+00
  3.23171676E+00  3.23181181E+00  3.33688964E+00  3.33690619E+00  3.52271600E+00
  3.54062663E+00  3.77160089E+00  3.77165329E+00  3.83988311E+00  3.89197774E+00
  3.89204388E+00  3.90748290E+00  4.39747697E+00  4.39754141E+00  4.48027865E+00
  4.48032634E+00  4.60519639E+00  5.21056251E+00  2.47120056E+01  2.51133203E+01
  2.51133455E+01  2.52301286E+01  2.52301691E+01  2.53034467E+01
Alpha MO coefficients                      R   N=       30276
  2.29789768E-01  1.90261979E-01  4.64163899E-08 -2.97158831E-07  1.08337838E-04
  1.99131786E-03  1.06650704E-04 -1.84856089E-04 -7.91217370E-05 -3.19111198E-04
 -1.88389595E-05  3.25720228E-05  3.80038240E-05  2.13149053E-04  1.31151021E-05
 -2.26671622E-05 -2.16019040E-05 -1.10883979E-04  6.78634957E-06 -1.17843951E-05
  3.19950169E-05  5.54942708E-05  2.29808778E-01  1.90277716E-01 -2.02713320E-08
 -3.21949422E-07  1.08347289E-04  1.99149812E-03 -1.06639188E-04 -1.84879808E-04
 -7.91304663E-05 -3.19123310E-04  1.88126589E-05  3.26021951E-05  3.79995548E-05
  2.12683910E-04 -1.30019362E-05 -2.26052409E-05 -2.16623761E-05 -1.10888756E-04
 -6.77830061E-06 -1.17887279E-05  3.19857790E-05 -5.55114757E-05  2.30188529E-01
  1.90592278E-01 -1.29287393E-07  2.79571681E-15  1.08534600E-04  1.99420196E-03
 -2.13555406E-04 -7.67098885E-15 -7.93690547E-05 -3.19664452E-04  3.78019995E-05
 -3.65515373E-14  3.81951842E-05  2.14228885E-04 -2.68298703E-05  5.98854428E-12
 -2.15452926E-05 -1.11177242E-04 -1.37022710E-05  8.92244302E-17 -6.41145343E-05
 -1.78106248E-15  2.29808778E-01  1.90277716E-01 -2.02713321E-08  3.21949423E-07
  1.08347289E-04  1.99149812E-03 -1.06639188E-04  1.84879808E-04 -7.91304663E-05
 -3.19123310E-04  1.88126587E-05 -3.26021953E-05  3.79995548E-05  2.12683905E-04
 -1.30019245E-05  2.26052486E-05 -2.16623760E-05 -1.10888756E-04 -6.77830061E-06
  1.17887279E-05  3.19857790E-05  5.55114757E-05  2.29789768E-01  1.90261979E-01
  4.64163841E-08  2.97158839E-07  1.08337838E-04  1.99131786E-03  1.06650704E-04
  1.84856089E-04 -7.91217370E-05 -3.19111197E-04 -1.88389600E-05 -3.25720224E-05
  3.80038240E-05  2.13149042E-04  1.31151182E-05  2.26671520E-05 -2.16019040E-05
 -1.10883979E-04  6.78634957E-06  1.17843951E-05  3.19950169E-05 -5.54942708E-05
  2.30102552E-01  1.90521075E-01  1.51642645E-07  5.61228520E-15  1.08491403E-04
  1.99353357E-03  2.13497965E-04 -1.50745123E-14 -7.93251274E-05 -3.19603650E-04
 -3.77871201E-05  3.73644920E-13  3.81678512E-05  2.13794285E-04  2.65727569E-05
 -1.10172620E-11 -2.16182136E-05 -1.11126389E-04  1.36893790E-05 -1.68884333E-15
 -6.40917203E-05  1.22869171E-15  1.70481935E-04  1.57644238E-05  5.76462083E-05
 -1.29908973E-04  1.16640214E-05 -2.02552698E-05  1.87607940E-05  1.70496365E-04
  1.57583680E-05  5.76387107E-05 -1.29971341E-04 -1.16577554E-05 -2.02598728E-05
  1.87623123E-05  1.70767421E-04  1.56741759E-05  5.79575288E-05 -1.29735191E-04
 -2.33724690E-05  7.72707178E-16  1.87511093E-05  1.70496365E-04  1.57583680E-05
  5.76387108E-05 -1.29971341E-04 -1.16577554E-05  2.02598728E-05  1.87623123E-05
  1.70481935E-04  1.57644237E-05  5.76462086E-05 -1.29908973E-04  1.16640214E-05
  2.02552698E-05  1.87607940E-05  1.70704953E-04  1.56856942E-05  5.78891593E-05
 -1.29833676E-04  2.33665771E-05 -7.82952289E-15  1.87471339E-05 -1.62484085E-01
 -1.34552671E-01  1.50181722E-04  6.34579550E-05 -8.16429026E-05 -1.31929096E-03
  3.61750297E-05  1.44753951E-04  8.35912446E-05  1.13483111E-04 -1.33719894E-04
 -1.26342660E-04 -3.56706538E-05  6.58384770E-05  1.70184820E-04  3.67619787E-04
 -2.13353438E-05  8.65435510E-05  2.73842733E-05  3.99440584E-05  4.25365583E-05
 -8.13568432E-05  1.62401216E-01  1.34484046E-01  1.50202392E-04 -6.34907916E-05
  8.16020632E-05  1.31862752E-03  3.62193082E-05 -1.44708558E-04 -8.35563439E-05
 -1.13370600E-04 -1.33730142E-04  1.26323471E-04  3.56486873E-05 -6.61296399E-05
  1.70235075E-04 -3.67514502E-04  2.13199962E-05 -8.64941985E-05  2.73941034E-05
 -3.99369208E-05 -4.25556518E-05 -8.13428621E-05  3.25353813E-01  2.69424865E-01
  4.06051076E-05 -4.00357760E-13  1.63463685E-04  2.64095264E-03 -2.14800758E-04
 -2.43301055E-13 -1.67447707E-04 -2.27316256E-04  8.50339373E-05  5.23146427E-13
  7.18470479E-05 -1.43802866E-04 -4.64794625E-04  1.61895627E-12  4.31433306E-05
 -1.73459670E-04 -4.19413916E-05 -1.08934092E-13 -9.82171935E-05  1.86197550E-13
  1.62401217E-01  1.34484047E-01  1.50202392E-04  6.34907913E-05  8.16020638E-05
  1.31862752E-03  3.62193076E-05  1.44708559E-04 -8.35563445E-05 -1.13370601E-04
 -1.33730141E-04 -1.26323471E-04  3.56486876E-05 -6.61296430E-05  1.70235078E-04
  3.67514505E-04  2.13199963E-05 -8.64941991E-05  2.73941033E-05  3.99369209E-05