 Entering Gaussian System, Link 0=g09
 Initial command:
 /apps/software//g09/l1.exe /scratch/itamar/2432.cluster.abaxnet/Gau-8936.inp -scrdir=/scratch/itamar/2432.cluster.abaxnet/
 Entering Link 1 = /apps/software//g09/l1.exe PID=      8937.
  
 Copyright (c) 1988,1990,1992,1993,1995,1998,2003,2009, Gaussian, Inc.
                  All Rights Reserved.
  
 This is part of the Gaussian(R) 09 program.  It is based on
 the Gaussian(R) 03 system (copyright 2003, Gaussian, Inc.),
 the Gaussian(R) 98 system (copyright 1998, Gaussian, Inc.),
 the Gaussian(R) 94 system (copyright 1995, Gaussian, Inc.),
 the Gaussian 92(TM) system (copyright 1992, Gaussian, Inc.),
 the Gaussian 90(TM) system (copyright 1990, Gaussian, Inc.),
 the Gaussian 88(TM) system (copyright 1988, Gaussian, Inc.),
 the Gaussian 86(TM) system (copyright 1986, Carnegie Mellon
 University), and the Gaussian 82(TM) system (copyright 1983,
 Carnegie Mellon University). Gaussian is a federally registered
 trademark of Gaussian, Inc.
  
 This software contains proprietary and confidential information,
 including trade secrets, belonging to Gaussian, Inc.
  
 This software is provided under written license and may be
 used, copied, transmitted, or stored only in accord with that
 written license.
  
 The following legend is applicable only to US Government
 contracts under FAR:
  
                    RESTRICTED RIGHTS LEGEND
  
 Use, reproduction and disclosure by the US Government is
 subject to restrictions as set forth in subparagraphs (a)
 and (c) of the Commercial Computer Software - Restricted
 Rights clause in FAR 52.227-19.
  
 Gaussian, Inc.
 340 Quinnipiac St., Bldg. 40, Wallingford CT 06492
  
  
 ---------------------------------------------------------------
 Warning -- This program may not be used in any manner that
 competes with the business of Gaussian, Inc. or will provide
 assistance to any competitor of Gaussian, Inc.  The licensee
 of this program is prohibited from giving any competitor of
 Gaussian, Inc. access to this program.  By using this program,
 the user acknowledges that Gaussian, Inc. is engaged in the
 business of creating and licensing software in the field of
 computational chemistry and represents and warrants to the
 licensee that it is not a competitor of Gaussian, Inc. and that
 it will not use this program in any manner prohibited above.
 ---------------------------------------------------------------
  

 Cite this work as:
 Gaussian 09, Revision A.02,
 M. J. Frisch, G. W. Trucks, H. B. Schlegel, G. E. Scuseria, 
 M. A. Robb, J. R. Cheeseman, G. Scalmani, V. Barone, B. Mennucci, 
 G. A. Petersson, H. Nakatsuji, M. Caricato, X. Li, H. P. Hratchian, 
 A. F. Izmaylov, J. Bloino, G. Zheng, J. L. Sonnenberg, M. Hada, 
 M. Ehara, K. Toyota, R. Fukuda, J. Hasegawa, M. Ishida, T. Nakajima, 
 Y. Honda, O. Kitao, H. Nakai, T. Vreven, J. A. Montgomery, Jr., 
 J. E. Peralta, F. Ogliaro, M. Bearpark, J. J. Heyd, E. Brothers, 
 K. N. Kudin, V. N. Staroverov, R. Kobayashi, J. Normand, 
 K. Raghavachari, A. Rendell, J. C. Burant, S. S. Iyengar, J. Tomasi, 
 M. Cossi, N. Rega, J. M. Millam, M. Klene, J. E. Knox, J. B. Cross, 
 V. Bakken, C. Adamo, J. Jaramillo, R. Gomperts, R. E. Stratmann, 
 O. Yazyev, A. J. Austin, R. Cammi, C. Pomelli, J. W. Ochterski, 
 R. L. Martin, K. Morokuma, V. G. Zakrzewski, G. A. Voth, 
 P. Salvador, J. J. Dannenberg, S. Dapprich, A. D. Daniels, 
 O. Farkas, J. B. Foresman, J. V. Ortiz, J. Cioslowski, 
 and D. J. Fox, Gaussian, Inc., Wallingford CT, 2009.
 
 ******************************************
 Gaussian 09:  EM64L-G09RevA.02 11-Jun-2009
                 3-Dec-2021 
 ******************************************
 %Mem=3800MB
 %NProcShared=6
 Will use up to    6 processors via shared memory.
 %chk=/home/itamar/Aromaticity-test-set/T5-Pyramid/25/pyramid-25.chk
 -----------------------------
 #P MP2/6-311++G** DENSITY=MP2
 -----------------------------
 1/30=1,38=1/1;
 2/12=2,17=6,18=5,40=1/2;
 3/5=4,6=6,7=1111,11=9,16=1,25=1,30=1,71=1/1,2,3;
 4//1;
 5/5=2,38=5/2;
 8/6=4,10=2/1;
 9/15=1,16=-3/6;
 10/5=1,13=10/2;
 6/7=2,8=2,9=2,10=2,22=2/1;
 99/5=1,9=1/99;
 Leave Link    1 at Fri Dec  3 12:18:46 2021, MaxMem=  498073600 cpu:       0.3
 (Enter /apps/software//g09/l101.exe)
 ----------
 Pyramid-25
 ----------
 Symbolic Z-matrix:
 Charge =  0 Multiplicity = 1
 6                    -0.06556  -0.69951  -1.21154 
 6                    -0.06556   0.69951  -1.21154 
 6                    -0.06559   1.39908   0. 
 6                    -0.06556   0.69951   1.21154 
 6                    -0.06556  -0.69951   1.21154 
 6                    -0.06559  -1.39908   0. 
 1                     0.39343  -1.19156  -2.06403 
 1                     0.39343   1.19156  -2.06403 
 1                     0.39339   2.38337   0. 
 1                     0.39343   1.19156   2.06403 
 1                     0.39343  -1.19156   2.06403 
 1                     0.39339  -2.38337   0. 
 
 NAtoms=     12 NQM=     12 NQMF=      0 NMic=      0 NMicF=      0 NTot=     12.
                    Isotopes and Nuclear Properties:
 (Nuclear quadrupole moments (NQMom) in fm**2, nuclear magnetic moments (NMagM)
  in nuclear magnetons)

  Atom         1           2           3           4           5           6           7           8           9          10
 IAtWgt=          12          12          12          12          12          12           1           1           1           1
 AtmWgt=  12.0000000  12.0000000  12.0000000  12.0000000  12.0000000  12.0000000   1.0078250   1.0078250   1.0078250   1.0078250
 NucSpn=           0           0           0           0           0           0           1           1           1           1
 AtZEff=   0.0000000   0.0000000   0.0000000   0.0000000   0.0000000   0.0000000   0.0000000   0.0000000   0.0000000   0.0000000
 NQMom=    0.0000000   0.0000000   0.0000000   0.0000000   0.0000000   0.0000000   0.0000000   0.0000000   0.0000000   0.0000000
 NMagM=    0.0000000   0.0000000   0.0000000   0.0000000   0.0000000   0.0000000   2.7928460   2.7928460   2.7928460   2.7928460

  Atom        11          12
 IAtWgt=           1           1
 AtmWgt=   1.0078250   1.0078250
 NucSpn=           1           1
 AtZEff=   0.0000000   0.0000000
 NQMom=    0.0000000   0.0000000
 NMagM=    2.7928460   2.7928460
 Leave Link  101 at Fri Dec  3 12:18:46 2021, MaxMem=  498073600 cpu:       0.2
 (Enter /apps/software//g09/l202.exe)
                          Input orientation:                          
 ---------------------------------------------------------------------
 Center     Atomic      Atomic             Coordinates (Angstroms)
 Number     Number       Type             X           Y           Z
 ---------------------------------------------------------------------
      1          6           0       -0.065558   -0.699513   -1.211536
      2          6           0       -0.065559    0.699512   -1.211536
      3          6           0       -0.065591    1.399080    0.000000
      4          6           0       -0.065559    0.699512    1.211536
      5          6           0       -0.065558   -0.699513    1.211536
      6          6           0       -0.065591   -1.399081    0.000000
      7          1           0        0.393431   -1.191558   -2.064031
      8          1           0        0.393430    1.191557   -2.064031
      9          1           0        0.393390    2.383369    0.000000
     10          1           0        0.393430    1.191557    2.064031
     11          1           0        0.393431   -1.191558    2.064031
     12          1           0        0.393389   -2.383368    0.000000
 ---------------------------------------------------------------------
                    Distance matrix (angstroms):
                    1          2          3          4          5
     1  C    0.000000
     2  C    1.399025   0.000000
     3  C    2.423203   1.399005   0.000000
     4  C    2.797954   2.423072   1.399005   0.000000
     5  C    2.423072   2.797954   2.423203   1.399025   0.000000
     6  C    1.399005   2.423203   2.798161   2.423203   1.399005
     7  H    1.086060   2.124515   3.343999   3.810007   3.343967
     8  H    2.124515   1.086060   2.124615   3.343967   3.810007
     9  H    3.344042   2.124577   1.086043   2.124577   3.344042
    10  H    3.810007   3.343967   2.124615   1.086060   2.124515
    11  H    3.343967   3.810007   3.343999   2.124515   1.086060
    12  H    2.124575   3.344040   3.810194   3.344040   2.124575
                    6          7          8          9         10
     6  C    0.000000
     7  H    2.124615   0.000000
     8  H    3.343999   2.383115   0.000000
     9  H    3.810196   4.127993   2.383409   0.000000
    10  H    3.343999   4.766564   4.128062   2.383409   0.000000
    11  H    2.124615   4.128062   4.766564   4.127993   2.383115
    12  H    1.086040   2.383408   4.127991   4.766737   4.127991
                   11         12
    11  H    0.000000
    12  H    2.383408   0.000000
 Stoichiometry    C6H6
 Framework group  CS[SG(C2H2),X(C4H4)]
 Deg. of freedom    17
 Full point group                 CS      NOp   2
 Largest Abelian subgroup         CS      NOp   2
 Largest concise Abelian subgroup CS      NOp   2
                         Standard orientation:                         
 ---------------------------------------------------------------------
 Center     Atomic      Atomic             Coordinates (Angstroms)
 Number     Number       Type             X           Y           Z
 ---------------------------------------------------------------------
      1          6           0        0.065559   -0.699513    1.211536
      2          6           0        0.065559    0.699512    1.211536
      3          6           0        0.065590    1.399080    0.000000
      4          6           0        0.065559    0.699512   -1.211536
      5          6           0        0.065559   -0.699513   -1.211536
      6          6           0        0.065592   -1.399081    0.000000
      7          1           0       -0.393430   -1.191558    2.064031
      8          1           0       -0.393431    1.191557    2.064031
      9          1           0       -0.393392    2.383369    0.000000
     10          1           0       -0.393431    1.191557   -2.064031
     11          1           0       -0.393430   -1.191558   -2.064031
     12          1           0       -0.393387   -2.383368    0.000000
 ---------------------------------------------------------------------
 Rotational constants (GHZ):      5.6908988      5.6902983      2.8834556
 Leave Link  202 at Fri Dec  3 12:18:46 2021, MaxMem=  498073600 cpu:       0.0
 (Enter /apps/software//g09/l301.exe)
 Standard basis: 6-311++G(d,p) (5D, 7F)
 Ernie: Thresh=  0.10000D-02 Tol=  0.10000D-05 Strict=F.
 There are   102 symmetry adapted basis functions of A'  symmetry.
 There are    72 symmetry adapted basis functions of A"  symmetry.
 Integral buffers will be    131072 words long.
 Raffenetti 1 integral format.
 Two-electron integral symmetry is turned on.
   174 basis functions,   270 primitive gaussians,   180 cartesian basis functions
    21 alpha electrons       21 beta electrons
       nuclear repulsion energy       203.6009674645 Hartrees.
 IExCor=    0 DFT=F Ex=HF Corr=None ExCW=0 ScaHFX=  1.000000
 ScaDFX=  1.000000  1.000000  1.000000  1.000000 ScalE2=  1.000000  1.000000
 IRadAn=      0 IRanWt=     -1 IRanGd=            0 ICorTp=0
 NAtoms=   12 NActive=   12 NUniq=    8 SFac= 1.69D+00 NAtFMM=   80 NAOKFM=F Big=F
 Leave Link  301 at Fri Dec  3 12:18:46 2021, MaxMem=  498073600 cpu:       0.2
 (Enter /apps/software//g09/l302.exe)
 NPDir=0 NMtPBC=     1 NCelOv=     1 NCel=       1 NClECP=     1 NCelD=      1
         NCelK=      1 NCelE2=     1 NClLst=     1 CellRange=     0.0.
 One-electron integrals computed using PRISM.
 One-electron integral symmetry used in STVInt
 NBasis=   174 RedAO= T  NBF=   102    72
 NBsUse=   174 1.00D-06 NBFU=   102    72
 Leave Link  302 at Fri Dec  3 12:18:47 2021, MaxMem=  498073600 cpu:       1.3
 (Enter /apps/software//g09/l303.exe)
 DipDrv:  MaxL=1.
 Leave Link  303 at Fri Dec  3 12:18:47 2021, MaxMem=  498073600 cpu:       0.2
 (Enter /apps/software//g09/l401.exe)
 Harris functional with IExCor=  205 diagonalized for initial guess.
 ExpMin= 3.60D-02 ExpMax= 4.56D+03 ExpMxC= 6.82D+02 IAcc=3 IRadAn=         0 AccDes= 0.00D+00
 HarFok:  IExCor=  205 AccDes= 0.00D+00 IRadAn=         0 IDoV= 1
 ScaDFX=  1.000000  1.000000  1.000000  1.000000
 FoFCou: FMM=F IPFlag=           0 FMFlag=      100000 FMFlg1=           0
         NFxFlg=           0 DoJE=T BraDBF=F KetDBF=T FulRan=T
         Omega=  0.000000  0.000000  1.000000  0.000000  0.000000 ICntrl=     500 IOpCl=  0
         NMat0=    1 NMatS0=    1 NMatT0=    0 NMatD0=    1 NMtDS0=    0 NMtDT0=    0
         I1Cent=           4 NGrid=           0.
 Petite list used in FoFCou.
 Harris En= -231.114115035482    
 Initial guess orbital symmetries:
       Occupied  (A') (A') (A") (A') (A") (A') (A') (A') (A") (A')
                 (A") (A') (A") (A') (A') (A") (A') (A') (A") (A')
                 (A")
       Virtual   (A') (A") (A') (A') (A") (A') (A") (A') (A') (A')
                 (A') (A") (A') (A") (A') (A") (A') (A") (A') (A')
                 (A") (A") (A') (A') (A") (A') (A') (A") (A') (A')
                 (A") (A') (A') (A") (A") (A') (A") (A') (A') (A")
                 (A') (A") (A') (A") (A') (A") (A') (A') (A') (A")
                 (A') (A") (A') (A") (A') (A") (A') (A') (A') (A")
                 (A") (A') (A') (A") (A') (A") (A') (A') (A") (A')
                 (A") (A') (A") (A") (A') (A') (A') (A') (A") (A')
                 (A") (A') (A") (A') (A") (A') (A') (A") (A') (A")
                 (A') (A") (A") (A') (A') (A') (A") (A") (A') (A")
                 (A") (A') (A") (A') (A') (A') (A") (A") (A') (A')
                 (A') (A") (A') (A") (A") (A') (A') (A") (A') (A')
                 (A') (A") (A") (A') (A') (A') (A") (A") (A') (A')
                 (A") (A") (A') (A") (A') (A') (A") (A') (A") (A')
                 (A') (A") (A') (A") (A') (A') (A") (A') (A') (A")
                 (A") (A') (A')
 The electronic state of the initial guess is 1-A'.
 Leave Link  401 at Fri Dec  3 12:18:47 2021, MaxMem=  498073600 cpu:       2.9
 (Enter /apps/software//g09/l502.exe)
 Closed shell SCF:
 Requested convergence on RMS density matrix=1.00D-08 within 128 cycles.
 Requested convergence on MAX density matrix=1.00D-06.
 Requested convergence on             energy=1.00D-06.
 No special actions if energy rises.
 Using DIIS extrapolation, IDIIS=  1040.
 Integral symmetry usage will be decided dynamically.
 Keep R1 ints in memory in canonical form, NReq=135772999.
 IEnd=      118010 IEndB=      118010 NGot=   498073600 MDV=   365314588
 LenX=   365314588 LenY=   365281747
 Symmetry not used in FoFDir.
 MinBra= 0 MaxBra= 2 Meth= 1.
 IRaf=       0 NMat=   1 IRICut=       1 DoRegI=T DoRafI=F ISym2E= 0 JSym2E=0.

 Cycle   1  Pass 1  IDiag  1:
 E= -230.406715986761    
 DIIS: error= 5.94D-02 at cycle   1 NSaved=   1.
 NSaved= 1 IEnMin= 1 EnMin= -230.406715986761     IErMin= 1 ErrMin= 5.94D-02
 ErrMax= 5.94D-02 EMaxC= 1.00D-01 BMatC= 5.15D-01 BMatP= 5.15D-01
 IDIUse=3 WtCom= 4.06D-01 WtEn= 5.94D-01
 Coeff-Com:  0.100D+01
 Coeff-En:   0.100D+01
 Coeff:      0.100D+01
 Gap=     0.462 Goal=   None    Shift=    0.000
 GapD=    0.462 DampG=2.000 DampE=0.500 DampFc=1.0000 IDamp=-1.
 RMSDP=5.84D-03 MaxDP=1.45D-01              OVMax= 1.62D-01

 Cycle   2  Pass 1  IDiag  1:
 E= -230.659701850534     Delta-E=       -0.252985863773 Rises=F Damp=F
 DIIS: error= 1.75D-02 at cycle   2 NSaved=   2.
 NSaved= 2 IEnMin= 2 EnMin= -230.659701850534     IErMin= 2 ErrMin= 1.75D-02
 ErrMax= 1.75D-02 EMaxC= 1.00D-01 BMatC= 4.98D-02 BMatP= 5.15D-01
 IDIUse=3 WtCom= 8.25D-01 WtEn= 1.75D-01
 Coeff-Com:  0.160D+00 0.840D+00
 Coeff-En:   0.000D+00 0.100D+01
 Coeff:      0.132D+00 0.868D+00
 Gap=     0.415 Goal=   None    Shift=    0.000
 RMSDP=4.70D-03 MaxDP=1.26D-01 DE=-2.53D-01 OVMax= 6.01D-02

 Cycle   3  Pass 1  IDiag  1:
 E= -230.703734441892     Delta-E=       -0.044032591358 Rises=F Damp=F
 DIIS: error= 6.18D-03 at cycle   3 NSaved=   3.
 NSaved= 3 IEnMin= 3 EnMin= -230.703734441892     IErMin= 3 ErrMin= 6.18D-03
 ErrMax= 6.18D-03 EMaxC= 1.00D-01 BMatC= 5.07D-03 BMatP= 4.98D-02
 IDIUse=3 WtCom= 9.38D-01 WtEn= 6.18D-02
 Coeff-Com: -0.198D-01 0.212D+00 0.808D+00
 Coeff-En:   0.000D+00 0.000D+00 0.100D+01
 Coeff:     -0.186D-01 0.199D+00 0.820D+00
 Gap=     0.378 Goal=   None    Shift=    0.000
 RMSDP=6.48D-04 MaxDP=1.45D-02 DE=-4.40D-02 OVMax= 1.48D-02

 Cycle   4  Pass 1  IDiag  1:
 E= -230.708647343470     Delta-E=       -0.004912901578 Rises=F Damp=F
 DIIS: error= 7.00D-04 at cycle   4 NSaved=   4.
 NSaved= 4 IEnMin= 4 EnMin= -230.708647343470     IErMin= 4 ErrMin= 7.00D-04
 ErrMax= 7.00D-04 EMaxC= 1.00D-01 BMatC= 3.27D-05 BMatP= 5.07D-03
 IDIUse=3 WtCom= 9.93D-01 WtEn= 7.00D-03
 Coeff-Com: -0.188D-02-0.143D-01 0.481D-02 0.101D+01
 Coeff-En:   0.000D+00 0.000D+00 0.000D+00 0.100D+01
 Coeff:     -0.187D-02-0.142D-01 0.478D-02 0.101D+01
 Gap=     0.379 Goal=   None    Shift=    0.000
 RMSDP=8.62D-05 MaxDP=6.66D-04 DE=-4.91D-03 OVMax= 1.99D-03

 Cycle   5  Pass 1  IDiag  1:
 E= -230.708699302855     Delta-E=       -0.000051959385 Rises=F Damp=F
 DIIS: error= 1.23D-04 at cycle   5 NSaved=   5.
 NSaved= 5 IEnMin= 5 EnMin= -230.708699302855     IErMin= 5 ErrMin= 1.23D-04
 ErrMax= 1.23D-04 EMaxC= 1.00D-01 BMatC= 1.85D-06 BMatP= 3.27D-05
 IDIUse=3 WtCom= 9.99D-01 WtEn= 1.23D-03
 Coeff-Com:  0.108D-02-0.819D-02-0.385D-01-0.167D+00 0.121D+01
 Coeff-En:   0.000D+00 0.000D+00 0.000D+00 0.000D+00 0.100D+01
 Coeff:      0.107D-02-0.818D-02-0.384D-01-0.166D+00 0.121D+01
 Gap=     0.379 Goal=   None    Shift=    0.000
 RMSDP=2.87D-05 MaxDP=3.91D-04 DE=-5.20D-05 OVMax= 6.47D-04

 Cycle   6  Pass 1  IDiag  1:
 E= -230.708703218278     Delta-E=       -0.000003915424 Rises=F Damp=F
 DIIS: error= 1.10D-05 at cycle   6 NSaved=   6.
 NSaved= 6 IEnMin= 6 EnMin= -230.708703218278     IErMin= 6 ErrMin= 1.10D-05
 ErrMax= 1.10D-05 EMaxC= 1.00D-01 BMatC= 1.66D-08 BMatP= 1.85D-06
 IDIUse=1 WtCom= 1.00D+00 WtEn= 0.00D+00
 Coeff-Com: -0.614D-04 0.771D-03 0.362D-02 0.579D-02-0.127D+00 0.112D+01
 Coeff:     -0.614D-04 0.771D-03 0.362D-02 0.579D-02-0.127D+00 0.112D+01
 Gap=     0.379 Goal=   None    Shift=    0.000
 RMSDP=4.72D-06 MaxDP=6.84D-05 DE=-3.92D-06 OVMax= 5.61D-05

 Cycle   7  Pass 1  IDiag  1:
 E= -230.708703258865     Delta-E=       -0.000000040587 Rises=F Damp=F
 DIIS: error= 4.20D-06 at cycle   7 NSaved=   7.
 NSaved= 7 IEnMin= 7 EnMin= -230.708703258865     IErMin= 7 ErrMin= 4.20D-06
 ErrMax= 4.20D-06 EMaxC= 1.00D-01 BMatC= 1.39D-09 BMatP= 1.66D-08
 IDIUse=1 WtCom= 1.00D+00 WtEn= 0.00D+00
 Coeff-Com: -0.453D-04 0.382D-03 0.174D-02 0.637D-02-0.564D-01 0.116D+00
 Coeff-Com:  0.932D+00
 Coeff:     -0.453D-04 0.382D-03 0.174D-02 0.637D-02-0.564D-01 0.116D+00
 Coeff:      0.932D+00
 Gap=     0.379 Goal=   None    Shift=    0.000
 RMSDP=1.99D-06 MaxDP=5.58D-05 DE=-4.06D-08 OVMax= 1.37D-05

 Cycle   8  Pass 1  IDiag  1:
 E= -230.708703261541     Delta-E=       -0.000000002676 Rises=F Damp=F
 DIIS: error= 9.51D-07 at cycle   8 NSaved=   8.
 NSaved= 8 IEnMin= 8 EnMin= -230.708703261541     IErMin= 8 ErrMin= 9.51D-07
 ErrMax= 9.51D-07 EMaxC= 1.00D-01 BMatC= 1.09D-10 BMatP= 1.39D-09
 IDIUse=1 WtCom= 1.00D+00 WtEn= 0.00D+00
 Coeff-Com:  0.878D-05-0.101D-03-0.507D-03-0.134D-02 0.183D-01-0.113D+00
 Coeff-Com: -0.133D+00 0.123D+01
 Coeff:      0.878D-05-0.101D-03-0.507D-03-0.134D-02 0.183D-01-0.113D+00
 Coeff:     -0.133D+00 0.123D+01
 Gap=     0.379 Goal=   None    Shift=    0.000
 RMSDP=5.69D-07 MaxDP=1.46D-05 DE=-2.68D-09 OVMax= 7.45D-06

 Cycle   9  Pass 1  IDiag  1:
 E= -230.708703261925     Delta-E=       -0.000000000383 Rises=F Damp=F
 DIIS: error= 3.25D-07 at cycle   9 NSaved=   9.
 NSaved= 9 IEnMin= 9 EnMin= -230.708703261925     IErMin= 9 ErrMin= 3.25D-07
 ErrMax= 3.25D-07 EMaxC= 1.00D-01 BMatC= 4.46D-12 BMatP= 1.09D-10
 IDIUse=1 WtCom= 1.00D+00 WtEn= 0.00D+00
 Coeff-Com: -0.181D-05 0.258D-04 0.137D-03 0.279D-03-0.510D-02 0.392D-01
 Coeff-Com:  0.178D-01-0.472D+00 0.142D+01
 Coeff:     -0.181D-05 0.258D-04 0.137D-03 0.279D-03-0.510D-02 0.392D-01
 Coeff:      0.178D-01-0.472D+00 0.142D+01
 Gap=     0.379 Goal=   None    Shift=    0.000
 RMSDP=7.24D-08 MaxDP=1.23D-06 DE=-3.83D-10 OVMax= 2.41D-06

 Cycle  10  Pass 1  IDiag  1:
 E= -230.708703261943     Delta-E=       -0.000000000018 Rises=F Damp=F
 DIIS: error= 5.61D-08 at cycle  10 NSaved=  10.
 NSaved=10 IEnMin=10 EnMin= -230.708703261943     IErMin=10 ErrMin= 5.61D-08
 ErrMax= 5.61D-08 EMaxC= 1.00D-01 BMatC= 2.04D-13 BMatP= 4.46D-12
 IDIUse=1 WtCom= 1.00D+00 WtEn= 0.00D+00
 Coeff-Com: -0.127D-06 0.965D-06 0.954D-06 0.200D-04-0.332D-04-0.833D-03
 Coeff-Com:  0.306D-02 0.138D-01-0.189D+00 0.117D+01
 Coeff:     -0.127D-06 0.965D-06 0.954D-06 0.200D-04-0.332D-04-0.833D-03
 Coeff:      0.306D-02 0.138D-01-0.189D+00 0.117D+01
 Gap=     0.379 Goal=   None    Shift=    0.000
 RMSDP=6.92D-08 MaxDP=1.84D-06 DE=-1.82D-11 OVMax= 4.32D-07

 Cycle  11  Pass 1  IDiag  1:
 E= -230.708703261945     Delta-E=       -0.000000000002 Rises=F Damp=F
 DIIS: error= 1.69D-08 at cycle  11 NSaved=  11.
 NSaved=11 IEnMin=11 EnMin= -230.708703261945     IErMin=11 ErrMin= 1.69D-08
 ErrMax= 1.69D-08 EMaxC= 1.00D-01 BMatC= 3.05D-14 BMatP= 2.04D-13
 IDIUse=1 WtCom= 1.00D+00 WtEn= 0.00D+00
 Coeff-Com:  0.142D-06-0.223D-05-0.131D-04-0.226D-04 0.491D-03-0.406D-02
 Coeff-Com: -0.864D-03 0.496D-01-0.188D+00 0.300D+00 0.843D+00
 Coeff:      0.142D-06-0.223D-05-0.131D-04-0.226D-04 0.491D-03-0.406D-02
 Coeff:     -0.864D-03 0.496D-01-0.188D+00 0.300D+00 0.843D+00
 Gap=     0.379 Goal=   None    Shift=    0.000
 RMSDP=1.85D-08 MaxDP=5.13D-07 DE=-2.16D-12 OVMax= 1.02D-07

 Cycle  12  Pass 1  IDiag  1:
 E= -230.708703261947     Delta-E=       -0.000000000002 Rises=F Damp=F
 DIIS: error= 3.99D-09 at cycle  12 NSaved=  12.
 NSaved=12 IEnMin=12 EnMin= -230.708703261947     IErMin=12 ErrMin= 3.99D-09
 ErrMax= 3.99D-09 EMaxC= 1.00D-01 BMatC= 1.54D-15 BMatP= 3.05D-14
 IDIUse=1 WtCom= 1.00D+00 WtEn= 0.00D+00
 Coeff-Com: -0.192D-07 0.392D-06 0.290D-05 0.211D-05-0.104D-03 0.953D-03
 Coeff-Com: -0.568D-05-0.120D-01 0.561D-01-0.163D+00-0.174D+00 0.129D+01
 Coeff:     -0.192D-07 0.392D-06 0.290D-05 0.211D-05-0.104D-03 0.953D-03
 Coeff:     -0.568D-05-0.120D-01 0.561D-01-0.163D+00-0.174D+00 0.129D+01
 Gap=     0.379 Goal=   None    Shift=    0.000
 RMSDP=5.37D-09 MaxDP=1.57D-07 DE=-1.59D-12 OVMax= 3.30D-08

 SCF Done:  E(RHF) =  -230.708703262     A.U. after   12 cycles
             Convg  =    0.5373D-08             -V/T =  2.0013
 KE= 2.304037688575D+02 PE=-9.438005798830D+02 EE= 2.790871402992D+02
 Leave Link  502 at Fri Dec  3 12:18:53 2021, MaxMem=  498073600 cpu:      34.9
 (Enter /apps/software//g09/l801.exe)
 ExpMin= 3.60D-02 ExpMax= 4.56D+03 ExpMxC= 6.82D+02 IAcc=3 IRadAn=         5 AccDes= 0.00D+00
 HarFok:  IExCor=  205 AccDes= 0.00D+00 IRadAn=         5 IDoV=-2
 ScaDFX=  1.000000  1.000000  1.000000  1.000000
 Largest valence mixing into a core orbital is  1.53D-04
 Largest core mixing into a valence orbital is  3.97D-05
 Range of M.O.s used for correlation:     7   174
 NBasis=   174 NAE=    21 NBE=    21 NFC=     6 NFV=     0
 NROrb=    168 NOA=    15 NOB=    15 NVA=   153 NVB=   153

 **** Warning!!: The largest alpha MO coefficient is  0.17827804D+03

 Leave Link  801 at Fri Dec  3 12:18:53 2021, MaxMem=  498073600 cpu:       1.2
 (Enter /apps/software//g09/l906.exe)
 Frozen-core derivative calculation, NFC=   6 NFV=   0.
 FulOut=F Deriv=T AODrv=F NAtomX=    12
   MMem=         296  MDisk=          15 MDiskD=          15
  W3Min=      657720 MinDsk=     1009670 NBas6D=         180
 NBas2D=       16542    NTT=       16290    LW2=     2040000
    MDV=   497690683 MDiskM=       38247 NBas2p=        9304
 Fully in-core method, ICMem=   280919484.
 IMap=   1   2   3   4   5   6   7   8   9  10  11  12  13  14  15  16  17  18  19  20
 IMap=  21
 JobTyp=1 Pass  1 fully in-core, NPsUse=  6.
 Compute canonical integrals, IntTyp=   4.
 Symmetry not used in FoFDir.
 MinBra= 0 MaxBra= 2 Meth= 1.
 IRaf=       0 NMat=   1 IRICut=       1 DoRegI=T DoRafI=F ISym2E= 0 JSym2E=0.
 Spin components of T(2) and E(2):
     alpha-alpha T2 =       0.4332411989D-01 E2=     -0.1089842950D+00
     alpha-beta  T2 =       0.2288031316D+00 E2=     -0.6188153283D+00
     beta-beta   T2 =       0.4332411989D-01 E2=     -0.1089842950D+00
 The integrals were generated   1 times.
 ANorm=    0.1146931285D+01
 E2 =    -0.8367839183D+00 EUMP2 =    -0.23154548718023D+03
 Leave Link  906 at Fri Dec  3 12:19:39 2021, MaxMem=  498073600 cpu:     273.5
 (Enter /apps/software//g09/l1002.exe)
 Minotr:  Closed shell wavefunction.
          Computing MP2/KS-MP2 derivatives.
          Using Z-Vector for PSCF gradient.
          Skipping F1 and S1 gradient terms here.
          Frozen-core window.
          Direct CPHF calculation.
          Differentiating once with respect to electric field.
                with respect to dipole field.
          Electric field/nuclear overlap derivatives assumed to be zero.
          Using symmetry in CPHF.
          Requested convergence is 1.0D-10 RMS, and 1.0D-09 maximum.
          NewPWx=F KeepS1=T KeepF1=T KeepIn=T MapXYZ=F SortEE=F KeepMc=T.
          MDV=     498073500 using IRadAn=       0.
          Keep R1 ints in memory in canonical form, NReq=133511598.
 Symmetry not used in FoFDir.
 MinBra= 0 MaxBra= 2 Meth= 1.
 IRaf=       0 NMat=   1 IRICut=       1 DoRegI=T DoRafI=F ISym2E= 0 JSym2E=0.
          Solving linear equations separately, MaxMat=       0.
          There are     1 degrees of freedom in the 1st order CPHF.  IDoFFX=0.
 LinEq1:  Iter=  0 NonCon=     1 RMS=3.49D-03 Max=5.16D-02
 AX will form     1 AO Fock derivatives at one time.
 LinEq1:  Iter=  1 NonCon=     1 RMS=8.41D-04 Max=1.44D-02
 LinEq1:  Iter=  2 NonCon=     1 RMS=2.43D-04 Max=5.31D-03
 LinEq1:  Iter=  3 NonCon=     1 RMS=5.43D-05 Max=6.99D-04
 LinEq1:  Iter=  4 NonCon=     1 RMS=1.03D-05 Max=1.50D-04
 LinEq1:  Iter=  5 NonCon=     1 RMS=2.34D-06 Max=3.92D-05
 LinEq1:  Iter=  6 NonCon=     1 RMS=6.51D-07 Max=8.68D-06
 LinEq1:  Iter=  7 NonCon=     1 RMS=9.20D-08 Max=1.58D-06
 LinEq1:  Iter=  8 NonCon=     1 RMS=8.80D-09 Max=1.41D-07
 LinEq1:  Iter=  9 NonCon=     1 RMS=1.08D-09 Max=1.64D-08
 LinEq1:  Iter= 10 NonCon=     1 RMS=3.83D-10 Max=6.86D-09
 LinEq1:  Iter= 11 NonCon=     1 RMS=9.65D-11 Max=1.26D-09
 LinEq1:  Iter= 12 NonCon=     0 RMS=1.87D-11 Max=4.39D-10
 Linear equations converged to 1.000D-10 1.000D-09 after    12 iterations.
 End of Minotr Frequency-dependent properties file   721 does not exist.
 End of Minotr Frequency-dependent properties file   722 does not exist.
 Leave Link 1002 at Fri Dec  3 12:19:45 2021, MaxMem=  498073600 cpu:      36.8
 (Enter /apps/software//g09/l601.exe)
 Copying SCF densities to generalized density rwf, IOpCl= 0 IROHF=0.

 **********************************************************************

            Population analysis using the MP2 density.

 **********************************************************************

 Orbital symmetries:
       Occupied  (A') (A') (A") (A') (A") (A') (A') (A') (A") (A')
                 (A") (A') (A') (A") (A') (A") (A') (A') (A") (A')
                 (A")
       Virtual   (A') (A') (A") (A') (A") (A') (A') (A") (A') (A')
                 (A") (A') (A") (A") (A') (A') (A') (A") (A') (A')
                 (A") (A') (A") (A') (A") (A') (A') (A') (A") (A')
                 (A") (A') (A") (A') (A') (A") (A') (A") (A") (A')
                 (A') (A') (A") (A') (A") (A') (A') (A") (A') (A")
                 (A') (A") (A') (A") (A') (A") (A') (A') (A") (A')
                 (A") (A') (A") (A') (A') (A") (A') (A') (A") (A')
                 (A') (A") (A') (A") (A') (A") (A') (A') (A") (A')
                 (A") (A') (A") (A') (A") (A') (A') (A") (A') (A")
                 (A') (A") (A') (A') (A") (A') (A") (A') (A") (A")
                 (A") (A') (A") (A') (A') (A') (A") (A") (A') (A')
                 (A') (A") (A') (A") (A') (A") (A") (A') (A') (A")
                 (A') (A') (A') (A") (A') (A') (A") (A") (A') (A")
                 (A') (A") (A') (A") (A') (A') (A") (A') (A") (A')
                 (A') (A") (A') (A") (A') (A') (A") (A') (A') (A")
                 (A") (A') (A')
 The electronic state is 1-A'.
 Alpha  occ. eigenvalues --  -11.24369 -11.24313 -11.24313 -11.24193 -11.24193
 Alpha  occ. eigenvalues --  -11.24134  -1.15493  -1.02020  -1.02018  -0.82624
 Alpha  occ. eigenvalues --   -0.82622  -0.71035  -0.63677  -0.62142  -0.58951
 Alpha  occ. eigenvalues --   -0.58947  -0.50283  -0.49215  -0.49214  -0.33686
 Alpha  occ. eigenvalues --   -0.33684
 Alpha virt. eigenvalues --    0.04215   0.05361   0.05361   0.07145   0.07145
 Alpha virt. eigenvalues --    0.09347   0.09767   0.09768   0.12140   0.14354
 Alpha virt. eigenvalues --    0.14355   0.16376   0.16475   0.18286   0.18287
 Alpha virt. eigenvalues --    0.19139   0.19407   0.20129   0.20129   0.20937
 Alpha virt. eigenvalues --    0.20937   0.21995   0.21996   0.22689   0.22689
 Alpha virt. eigenvalues --    0.23036   0.25274   0.25382   0.25382   0.28712
 Alpha virt. eigenvalues --    0.28712   0.29734   0.30519   0.35017   0.35847
 Alpha virt. eigenvalues --    0.35848   0.43051   0.43052   0.47262   0.47265
 Alpha virt. eigenvalues --    0.48014   0.50498   0.50499   0.59448   0.60478
 Alpha virt. eigenvalues --    0.71315   0.71654   0.73081   0.73082   0.74857
 Alpha virt. eigenvalues --    0.74857   0.75934   0.77312   0.77313   0.79409
 Alpha virt. eigenvalues --    0.79622   0.79623   0.85093   0.85093   0.87434
 Alpha virt. eigenvalues --    0.88226   0.88228   0.90876   0.90876   0.91088
 Alpha virt. eigenvalues --    0.92227   0.92230   1.04616   1.07408   1.07408
 Alpha virt. eigenvalues --    1.10777   1.10899   1.10899   1.12637   1.19814
 Alpha virt. eigenvalues --    1.21390   1.24241   1.48286   1.48290   1.55562
 Alpha virt. eigenvalues --    1.55566   1.57489   1.73526   1.74942   1.74947
 Alpha virt. eigenvalues --    1.76839   1.82173   1.82174   1.84985   1.84991
 Alpha virt. eigenvalues --    1.98995   1.99203   1.99210   2.00192   2.01920
 Alpha virt. eigenvalues --    2.02309   2.02312   2.07099   2.07099   2.12938
 Alpha virt. eigenvalues --    2.20092   2.20096   2.29251   2.29253   2.30406
 Alpha virt. eigenvalues --    2.37183   2.37188   2.42406   2.42411   2.58396
 Alpha virt. eigenvalues --    2.64860   2.64868   2.73343   2.74822   2.78786
 Alpha virt. eigenvalues --    2.78789   2.85207   2.85210   2.85521   2.96699
 Alpha virt. eigenvalues --    2.96701   2.96799   2.97153   2.97155   3.07090
 Alpha virt. eigenvalues --    3.13802   3.22612   3.23056   3.23057   3.23172
 Alpha virt. eigenvalues --    3.23181   3.33689   3.33691   3.52272   3.54063
 Alpha virt. eigenvalues --    3.77160   3.77165   3.83988   3.89198   3.89204
 Alpha virt. eigenvalues --    3.90748   4.39748   4.39754   4.48028   4.48033
 Alpha virt. eigenvalues --    4.60520   5.21056  24.71201  25.11332  25.11335
 Alpha virt. eigenvalues --   25.23013  25.23017  25.30345
          Condensed to atoms (all electrons):
              1          2          3          4          5          6
     1  C    6.427067  -0.700335   0.862224  -0.905679   0.862048  -0.700605
     2  C   -0.700335   6.427074  -0.700606   0.862054  -0.905679   0.862229
     3  C    0.862224  -0.700606   6.427690  -0.700606   0.862224  -0.905926
     4  C   -0.905679   0.862054  -0.700606   6.427074  -0.700335   0.862229
     5  C    0.862048  -0.905679   0.862224  -0.700335   6.427067  -0.700605
     6  C   -0.700605   0.862229  -0.905926   0.862229  -0.700605   6.427694
     7  H    0.405617  -0.067026   0.014512  -0.006307   0.014516  -0.067034
     8  H   -0.067027   0.405618  -0.067035   0.014517  -0.006307   0.014512
     9  H    0.014503  -0.066985   0.405588  -0.066985   0.014503  -0.006308
    10  H   -0.006307   0.014517  -0.067035   0.405618  -0.067027   0.014512
    11  H    0.014516  -0.006307   0.014512  -0.067026   0.405617  -0.067034
    12  H   -0.066987   0.014504  -0.006308   0.014504  -0.066987   0.405590
              7          8          9         10         11         12
     1  C    0.405617  -0.067027   0.014503  -0.006307   0.014516  -0.066987
     2  C   -0.067026   0.405618  -0.066985   0.014517  -0.006307   0.014504
     3  C    0.014512  -0.067035   0.405588  -0.067035   0.014512  -0.006308
     4  C   -0.006307   0.014517  -0.066985   0.405618  -0.067026   0.014504
     5  C    0.014516  -0.006307   0.014503  -0.067027   0.405617  -0.066987
     6  C   -0.067034   0.014512  -0.006308   0.014512  -0.067034   0.405590
     7  H    0.570976  -0.002318   0.000054   0.000160   0.000056  -0.002319
     8  H   -0.002318   0.570976  -0.002319   0.000056   0.000160   0.000054
     9  H    0.000054  -0.002319   0.570942  -0.002319   0.000054   0.000160
    10  H    0.000160   0.000056  -0.002319   0.570976  -0.002318   0.000054
    11  H    0.000056   0.000160   0.000054  -0.002318   0.570976  -0.002319
    12  H   -0.002319   0.000054   0.000160   0.000054  -0.002319   0.570943
 Mulliken atomic charges:
              1
     1  C   -0.139035
     2  C   -0.139057
     3  C   -0.139233
     4  C   -0.139057
     5  C   -0.139035
     6  C   -0.139255
     7  H    0.139113
     8  H    0.139111
     9  H    0.139112
    10  H    0.139111
    11  H    0.139113
    12  H    0.139110
 Sum of Mulliken atomic charges =   0.00000
 Mulliken charges with hydrogens summed into heavy atoms:
              1
     1  C    0.000078
     2  C    0.000055
     3  C   -0.000121
     4  C    0.000055
     5  C    0.000078
     6  C   -0.000145
 Sum of Mulliken charges with hydrogens summed into heavy atoms =   0.00000
 Electronic spatial extent (au):  <R**2>=            457.7506
 Charge=              0.0000 electrons
 Dipole moment (field-independent basis, Debye):
    X=             -1.7653    Y=              0.0000    Z=              0.0000  Tot=              1.7653
 Quadrupole moment (field-independent basis, Debye-Ang):
   XX=            -39.6653   YY=            -34.3434   ZZ=            -34.3437
   XY=              0.0000   XZ=              0.0000   YZ=              0.0000
 Traceless Quadrupole moment (field-independent basis, Debye-Ang):
   XX=             -3.5479   YY=              1.7741   ZZ=              1.7738
   XY=              0.0000   XZ=              0.0000   YZ=              0.0000
 Octapole moment (field-independent basis, Debye-Ang**2):
  XXX=             -3.2530  YYY=              0.0000  ZZZ=              0.0000  XYY=             -7.6342
  XXY=              0.0000  XXZ=              0.0000  XZZ=             -7.6350  YZZ=              0.0000
  YYZ=              0.0000  XYZ=              0.0000
 Hexadecapole moment (field-independent basis, Debye-Ang**3):
 XXXX=            -55.3136 YYYY=           -294.5071 ZZZZ=           -294.4894 XXXY=              0.0001
 XXXZ=              0.0000 YYYX=              0.0000 YYYZ=              0.0000 ZZZX=              0.0000
 ZZZY=              0.0000 XXYY=            -63.4166 XXZZ=            -63.4129 YYZZ=            -98.1709
 XXYZ=              0.0000 YYXZ=              0.0000 ZZXY=              0.0000
 N-N= 2.036009674645D+02 E-N=-9.446594549458D+02  KE= 2.314390063659D+02
 Symmetry A'   KE= 1.509304955541D+02
 Symmetry A"   KE= 8.050851081175D+01
 No NMR shielding tensors so no spin-rotation constants.
 Leave Link  601 at Fri Dec  3 12:19:46 2021, MaxMem=  498073600 cpu:       1.6
 (Enter /apps/software//g09/l9999.exe)
 1\1\GINC-DLT01\SP\RMP2-FC\6-311++G(d,p)\C6H6\ITAMAR\03-Dec-2021\0\\#P 
 MP2/6-311++G** DENSITY=MP2\\Pyramid-25\\0,1\C,0,-0.065558,-0.699513,-1
 .211536\C,0,-0.065559,0.699512,-1.211536\C,0,-0.065591,1.39908,0.\C,0,
 -0.065559,0.699512,1.211536\C,0,-0.065558,-0.699513,1.211536\C,0,-0.06
 5591,-1.399081,0.\H,0,0.393431,-1.191558,-2.064031\H,0,0.39343,1.19155
 7,-2.064031\H,0,0.39339,2.383369,0.\H,0,0.39343,1.191557,2.064031\H,0,
 0.393431,-1.191558,2.064031\H,0,0.393389,-2.383368,0.\\Version=EM64L-G
 09RevA.02\State=1-A'\HF=-230.7087033\MP2=-231.5454872\RMSD=5.373e-09\D
 ipole=0.6945069,-0.0000005,0.\Quadrupole=-2.6377437,1.3189803,1.318763
 4,0.0000006,0.,0.\PG=CS [SG(C2H2),X(C4H4)]\\@


 HAPPINESS IS NOT HAVING WHAT YOU WANT --
 HAPPINESS IS WANTING WHAT YOU HAVE!

              -- FROM MRS. SEVERN'S DESK
 Job cpu time:  0 days  0 hours  5 minutes 54.3 seconds.
 File lengths (MBytes):  RWF=     14 Int=      0 D2E=      0 Chk=      4 Scr=      1
 Normal termination of Gaussian 09 at Fri Dec  3 12:19:46 2021.
