Penta-BH2-                                                              
SP        RMP2-FC                                                     6-311++G(d,p)       
Number of atoms                            I               12
Info1-9                                    I   N=           9
          29          21           0           0           0         110
           1           2           1
Charge                                     I               -1
Multiplicity                               I                1
Number of electrons                        I               42
Number of alpha electrons                  I               21
Number of beta electrons                   I               21
Number of basis functions                  I              174
Number of independent functions            I              174
Number of point charges in /Mol/           I                0
Number of translation vectors              I                0
Atomic numbers                             I   N=          12
           6           6           1           6           1           6
           1           6           1           5           1           1
Nuclear charges                            R   N=          12
  6.00000000E+00  6.00000000E+00  1.00000000E+00  6.00000000E+00  1.00000000E+00
  6.00000000E+00  1.00000000E+00  6.00000000E+00  1.00000000E+00  5.00000000E+00
  1.00000000E+00  1.00000000E+00
Current cartesian coordinates              R   N=          36
 -1.50062207E+00  9.44863066E-06  0.00000000E+00  1.65802681E-01  2.17092116E+00
  0.00000000E+00 -4.73157188E-01  4.11875448E+00  0.00000000E+00  2.65469672E+00
  1.36096753E+00  0.00000000E+00  4.32600642E+00  2.55062950E+00  0.00000000E+00
  1.65802681E-01 -2.17091360E+00  0.00000000E+00 -4.73157188E-01 -4.11874692E+00
  0.00000000E+00  2.65469672E+00 -1.36096375E+00  0.00000000E+00  4.32600453E+00
 -2.55062761E+00  0.00000000E+00 -4.30587327E+00 -1.51178091E-05  0.00000000E+00
 -5.50932458E+00  1.94503275E+00  0.00000000E+00 -5.50926977E+00 -1.94510078E+00
  0.00000000E+00
Force Field                                I                0
Int Atom Types                             I   N=          12
           0           0           0           0           0           0
           0           0           0           0           0           0
MM charges                                 R   N=          12
  0.00000000E+00  0.00000000E+00  0.00000000E+00  0.00000000E+00  0.00000000E+00
  0.00000000E+00  0.00000000E+00  0.00000000E+00  0.00000000E+00  0.00000000E+00
  0.00000000E+00  0.00000000E+00
Integer atomic weights                     I   N=          12
          12          12           1          12           1          12
           1          12           1          11           1           1
Real atomic weights                        R   N=          12
  1.20000000E+01  1.20000000E+01  1.00782504E+00  1.20000000E+01  1.00782504E+00
  1.20000000E+01  1.00782504E+00  1.20000000E+01  1.00782504E+00  1.10093053E+01
  1.00782504E+00  1.00782504E+00
Atom fragment info                         I   N=          12
           0           0           0           0           0           0
           0           0           0           0           0           0
Atom residue num                           I   N=          12
           0           0           0           0           0           0
           0           0           0           0           0           0
Nuclear spins                              I   N=          12
           0           0           1           0           1           0
           1           0           1           3           1           1
Nuclear ZEff                               R   N=          12
 -3.60000000E+00 -3.60000000E+00 -1.00000000E+00 -3.60000000E+00 -1.00000000E+00
 -3.60000000E+00 -1.00000000E+00 -3.60000000E+00 -1.00000000E+00 -2.75000000E+00
 -1.00000000E+00 -1.00000000E+00
Nuclear QMom                               R   N=          12
  0.00000000E+00  0.00000000E+00  0.00000000E+00  0.00000000E+00  0.00000000E+00
  0.00000000E+00  0.00000000E+00  0.00000000E+00  0.00000000E+00  4.05900000E+00
  0.00000000E+00  0.00000000E+00
Nuclear GFac                               R   N=          12
  0.00000000E+00  0.00000000E+00  2.79284600E+00  0.00000000E+00  2.79284600E+00
  0.00000000E+00  2.79284600E+00  0.00000000E+00  2.79284600E+00  2.68863700E+00
  2.79284600E+00  2.79284600E+00
MicOpt                                     I   N=          12
          -1          -1          -1          -1          -1          -1
          -1          -1          -1          -1          -1          -1
Number of contracted shells                I               66
Number of primitive shells                 I              120
Pure/Cartesian d shells                    I                0
Pure/Cartesian f shells                    I                0
Highest angular momentum                   I                2
Largest degree of contraction              I                6
Shell types                                I   N=          66
           0          -1          -1          -1          -1          -2
           0          -1          -1          -1          -1          -2
           0           0           0           0           1           0
          -1          -1          -1          -1          -2           0
           0           0           0           1           0          -1
          -1          -1          -1          -2           0           0
           0           0           1           0          -1          -1
          -1          -1          -2           0           0           0
           0           1           0          -1          -1          -1
          -1          -2           0           0           0           0
           1           0           0           0           0           1
Number of primitives per shell             I   N=          66
           6           3           1           1           1           1
           6           3           1           1           1           1
           3           1           1           1           1           6
           3           1           1           1           1           3
           1           1           1           1           6           3
           1           1           1           1           3           1
           1           1           1           6           3           1
           1           1           1           3           1           1
           1           1           6           3           1           1
           1           1           3           1           1           1
           1           3           1           1           1           1
Shell to atom map                          I   N=          66
           1           1           1           1           1           1
           2           2           2           2           2           2
           3           3           3           3           3           4
           4           4           4           4           4           5
           5           5           5           5           6           6
           6           6           6           6           7           7
           7           7           7           8           8           8
           8           8           8           9           9           9
           9           9          10          10          10          10
          10          10          11          11          11          11
          11          12          12          12          12          12
Primitive exponents                        R   N=         120
  4.56324000E+03  6.82024000E+02  1.54973000E+02  4.44553000E+01  1.30290000E+01
  1.82773000E+00  2.09642000E+01  4.80331000E+00  1.45933000E+00  4.83456000E-01
  1.45585000E-01  4.38000000E-02  6.26000000E-01  4.56324000E+03  6.82024000E+02
  1.54973000E+02  4.44553000E+01  1.30290000E+01  1.82773000E+00  2.09642000E+01
  4.80331000E+00  1.45933000E+00  4.83456000E-01  1.45585000E-01  4.38000000E-02
  6.26000000E-01  3.38650000E+01  5.09479000E+00  1.15879000E+00  3.25840000E-01
  1.02741000E-01  3.60000000E-02  7.50000000E-01  4.56324000E+03  6.82024000E+02
  1.54973000E+02  4.44553000E+01  1.30290000E+01  1.82773000E+00  2.09642000E+01
  4.80331000E+00  1.45933000E+00  4.83456000E-01  1.45585000E-01  4.38000000E-02
  6.26000000E-01  3.38650000E+01  5.09479000E+00  1.15879000E+00  3.25840000E-01
  1.02741000E-01  3.60000000E-02  7.50000000E-01  4.56324000E+03  6.82024000E+02
  1.54973000E+02  4.44553000E+01  1.30290000E+01  1.82773000E+00  2.09642000E+01
  4.80331000E+00  1.45933000E+00  4.83456000E-01  1.45585000E-01  4.38000000E-02
  6.26000000E-01  3.38650000E+01  5.09479000E+00  1.15879000E+00  3.25840000E-01
  1.02741000E-01  3.60000000E-02  7.50000000E-01  4.56324000E+03  6.82024000E+02
  1.54973000E+02  4.44553000E+01  1.30290000E+01  1.82773000E+00  2.09642000E+01
  4.80331000E+00  1.45933000E+00  4.83456000E-01  1.45585000E-01  4.38000000E-02
  6.26000000E-01  3.38650000E+01  5.09479000E+00  1.15879000E+00  3.25840000E-01
  1.02741000E-01  3.60000000E-02  7.50000000E-01  2.85889000E+03  4.28140000E+02
  9.75282000E+01  2.79693000E+01  8.21577000E+00  1.11278000E+00  1.32415000E+01
  3.00166000E+00  9.12856000E-01  3.15454000E-01  9.88563000E-02  3.15000000E-02
  4.01000000E-01  3.38650000E+01  5.09479000E+00  1.15879000E+00  3.25840000E-01
  1.02741000E-01  3.60000000E-02  7.50000000E-01  3.38650000E+01  5.09479000E+00
  1.15879000E+00  3.25840000E-01  1.02741000E-01  3.60000000E-02  7.50000000E-01
Contraction coefficients                   R   N=         120
  1.96665025E-03  1.52306019E-02  7.61269097E-02  2.60801033E-01  6.16462078E-01
  2.21006028E-01  1.14660081E-01  9.19999648E-01 -3.03068213E-03  1.00000000E+00
  1.00000000E+00  1.00000000E+00  1.00000000E+00  1.96665025E-03  1.52306019E-02
  7.61269097E-02  2.60801033E-01  6.16462078E-01  2.21006028E-01  1.14660081E-01
  9.19999648E-01 -3.03068213E-03  1.00000000E+00  1.00000000E+00  1.00000000E+00
  1.00000000E+00  2.54938145E-02  1.90373109E-01  8.52161486E-01  1.00000000E+00
  1.00000000E+00  1.00000000E+00  1.00000000E+00  1.96665025E-03  1.52306019E-02
  7.61269097E-02  2.60801033E-01  6.16462078E-01  2.21006028E-01  1.14660081E-01
  9.19999648E-01 -3.03068213E-03  1.00000000E+00  1.00000000E+00  1.00000000E+00
  1.00000000E+00  2.54938145E-02  1.90373109E-01  8.52161486E-01  1.00000000E+00
  1.00000000E+00  1.00000000E+00  1.00000000E+00  1.96665025E-03  1.52306019E-02
  7.61269097E-02  2.60801033E-01  6.16462078E-01  2.21006028E-01  1.14660081E-01
  9.19999648E-01 -3.03068213E-03  1.00000000E+00  1.00000000E+00  1.00000000E+00
  1.00000000E+00  2.54938145E-02  1.90373109E-01  8.52161486E-01  1.00000000E+00
  1.00000000E+00  1.00000000E+00  1.00000000E+00  1.96665025E-03  1.52306019E-02
  7.61269097E-02  2.60801033E-01  6.16462078E-01  2.21006028E-01  1.14660081E-01
  9.19999648E-01 -3.03068213E-03  1.00000000E+00  1.00000000E+00  1.00000000E+00
  1.00000000E+00  2.54938145E-02  1.90373109E-01  8.52161486E-01  1.00000000E+00
  1.00000000E+00  1.00000000E+00  1.00000000E+00  2.15374907E-03  1.65822928E-02
  8.21869644E-02  2.76617880E-01  6.29315727E-01  1.73769925E-01  1.17442942E-01
  9.18001549E-01 -2.65104870E-03  1.00000000E+00  1.00000000E+00  1.00000000E+00
  1.00000000E+00  2.54938145E-02  1.90373109E-01  8.52161486E-01  1.00000000E+00
  1.00000000E+00  1.00000000E+00  1.00000000E+00  2.54938145E-02  1.90373109E-01
  8.52161486E-01  1.00000000E+00  1.00000000E+00  1.00000000E+00  1.00000000E+00
P(S=P) Contraction coefficients            R   N=         120
  0.00000000E+00  0.00000000E+00  0.00000000E+00  0.00000000E+00  0.00000000E+00
  0.00000000E+00  4.02486927E-02  2.37593957E-01  8.15853851E-01  1.00000000E+00
  1.00000000E+00  1.00000000E+00  0.00000000E+00  0.00000000E+00  0.00000000E+00
  0.00000000E+00  0.00000000E+00  0.00000000E+00  0.00000000E+00  4.02486927E-02
  2.37593957E-01  8.15853851E-01  1.00000000E+00  1.00000000E+00  1.00000000E+00
  0.00000000E+00  0.00000000E+00  0.00000000E+00  0.00000000E+00  0.00000000E+00
  0.00000000E+00  0.00000000E+00  0.00000000E+00  0.00000000E+00  0.00000000E+00
  0.00000000E+00  0.00000000E+00  0.00000000E+00  0.00000000E+00  4.02486927E-02
  2.37593957E-01  8.15853851E-01  1.00000000E+00  1.00000000E+00  1.00000000E+00
  0.00000000E+00  0.00000000E+00  0.00000000E+00  0.00000000E+00  0.00000000E+00
  0.00000000E+00  0.00000000E+00  0.00000000E+00  0.00000000E+00  0.00000000E+00
  0.00000000E+00  0.00000000E+00  0.00000000E+00  0.00000000E+00  4.02486927E-02
  2.37593957E-01  8.15853851E-01  1.00000000E+00  1.00000000E+00  1.00000000E+00
  0.00000000E+00  0.00000000E+00  0.00000000E+00  0.00000000E+00  0.00000000E+00
  0.00000000E+00  0.00000000E+00  0.00000000E+00  0.00000000E+00  0.00000000E+00
  0.00000000E+00  0.00000000E+00  0.00000000E+00  0.00000000E+00  4.02486927E-02
  2.37593957E-01  8.15853851E-01  1.00000000E+00  1.00000000E+00  1.00000000E+00
  0.00000000E+00  0.00000000E+00  0.00000000E+00  0.00000000E+00  0.00000000E+00
  0.00000000E+00  0.00000000E+00  0.00000000E+00  0.00000000E+00  0.00000000E+00
  0.00000000E+00  0.00000000E+00  0.00000000E+00  0.00000000E+00  4.18099989E-02
  2.36574994E-01  8.16213978E-01  1.00000000E+00  1.00000000E+00  1.00000000E+00
  0.00000000E+00  0.00000000E+00  0.00000000E+00  0.00000000E+00  0.00000000E+00
  0.00000000E+00  0.00000000E+00  0.00000000E+00  0.00000000E+00  0.00000000E+00
  0.00000000E+00  0.00000000E+00  0.00000000E+00  0.00000000E+00  0.00000000E+00
Coordinates of each shell                  R   N=         198
 -1.50062198E+00  9.67908507E-06  0.00000000E+00 -1.50062198E+00  9.67908507E-06
  0.00000000E+00 -1.50062198E+00  9.67908507E-06  0.00000000E+00 -1.50062198E+00
  9.67908507E-06  0.00000000E+00 -1.50062198E+00  9.67908507E-06  0.00000000E+00
 -1.50062198E+00  9.67908507E-06  0.00000000E+00  1.65802773E-01  2.17092139E+00
  0.00000000E+00  1.65802773E-01  2.17092139E+00  0.00000000E+00  1.65802773E-01
  2.17092139E+00  0.00000000E+00  1.65802773E-01  2.17092139E+00  0.00000000E+00
  1.65802773E-01  2.17092139E+00  0.00000000E+00  1.65802773E-01  2.17092139E+00
  0.00000000E+00 -4.73157096E-01  4.11875471E+00  0.00000000E+00 -4.73157096E-01
  4.11875471E+00  0.00000000E+00 -4.73157096E-01  4.11875471E+00  0.00000000E+00
 -4.73157096E-01  4.11875471E+00  0.00000000E+00 -4.73157096E-01  4.11875471E+00
  0.00000000E+00  2.65469681E+00  1.36096776E+00  0.00000000E+00  2.65469681E+00
  1.36096776E+00  0.00000000E+00  2.65469681E+00  1.36096776E+00  0.00000000E+00
  2.65469681E+00  1.36096776E+00  0.00000000E+00  2.65469681E+00  1.36096776E+00
  0.00000000E+00  2.65469681E+00  1.36096776E+00  0.00000000E+00  4.32600651E+00
  2.55062973E+00  0.00000000E+00  4.32600651E+00  2.55062973E+00  0.00000000E+00
  4.32600651E+00  2.55062973E+00  0.00000000E+00  4.32600651E+00  2.55062973E+00
  0.00000000E+00  4.32600651E+00  2.55062973E+00  0.00000000E+00  1.65802773E-01
 -2.17091337E+00  0.00000000E+00  1.65802773E-01 -2.17091337E+00  0.00000000E+00
  1.65802773E-01 -2.17091337E+00  0.00000000E+00  1.65802773E-01 -2.17091337E+00
  0.00000000E+00  1.65802773E-01 -2.17091337E+00  0.00000000E+00  1.65802773E-01
 -2.17091337E+00  0.00000000E+00 -4.73157096E-01 -4.11874669E+00  0.00000000E+00
 -4.73157096E-01 -4.11874669E+00  0.00000000E+00 -4.73157096E-01 -4.11874669E+00
  0.00000000E+00 -4.73157096E-01 -4.11874669E+00  0.00000000E+00 -4.73157096E-01
 -4.11874669E+00  0.00000000E+00  2.65469681E+00 -1.36096352E+00  0.00000000E+00
  2.65469681E+00 -1.36096352E+00  0.00000000E+00  2.65469681E+00 -1.36096352E+00
  0.00000000E+00  2.65469681E+00 -1.36096352E+00  0.00000000E+00  2.65469681E+00
 -1.36096352E+00  0.00000000E+00  2.65469681E+00 -1.36096352E+00  0.00000000E+00
  4.32600462E+00 -2.55062738E+00  0.00000000E+00  4.32600462E+00 -2.55062738E+00
  0.00000000E+00  4.32600462E+00 -2.55062738E+00  0.00000000E+00  4.32600462E+00
 -2.55062738E+00  0.00000000E+00  4.32600462E+00 -2.55062738E+00  0.00000000E+00
 -4.30587318E+00 -1.48873547E-05  0.00000000E+00 -4.30587318E+00 -1.48873547E-05
  0.00000000E+00 -4.30587318E+00 -1.48873547E-05  0.00000000E+00 -4.30587318E+00
 -1.48873547E-05  0.00000000E+00 -4.30587318E+00 -1.48873547E-05  0.00000000E+00
 -4.30587318E+00 -1.48873547E-05  0.00000000E+00 -5.50932448E+00  1.94503298E+00
  0.00000000E+00 -5.50932448E+00  1.94503298E+00  0.00000000E+00 -5.50932448E+00
  1.94503298E+00  0.00000000E+00 -5.50932448E+00  1.94503298E+00  0.00000000E+00
 -5.50932448E+00  1.94503298E+00  0.00000000E+00 -5.50926968E+00 -1.94510055E+00
  0.00000000E+00 -5.50926968E+00 -1.94510055E+00  0.00000000E+00 -5.50926968E+00
 -1.94510055E+00  0.00000000E+00 -5.50926968E+00 -1.94510055E+00  0.00000000E+00
 -5.50926968E+00 -1.94510055E+00  0.00000000E+00
Constraint Structure                       R   N=          36
 -1.50062198E+00  9.67908507E-06  0.00000000E+00  1.65802773E-01  2.17092139E+00
  0.00000000E+00 -4.73157096E-01  4.11875471E+00  0.00000000E+00  2.65469681E+00
  1.36096776E+00  0.00000000E+00  4.32600651E+00  2.55062973E+00  0.00000000E+00
  1.65802773E-01 -2.17091337E+00  0.00000000E+00 -4.73157096E-01 -4.11874669E+00
  0.00000000E+00  2.65469681E+00 -1.36096352E+00  0.00000000E+00  4.32600462E+00
 -2.55062738E+00  0.00000000E+00 -4.30587318E+00 -1.48873547E-05  0.00000000E+00
 -5.50932448E+00  1.94503298E+00  0.00000000E+00 -5.50926968E+00 -1.94510055E+00
  0.00000000E+00
Num ILSW                                   I              100
ILSW                                       I   N=         100
           0           0           0           0           2           0
           0           0           0           0           0          -1
           0           0           0           0           0           0
           0           0           0           0           0           0
           1           0           0           0           0           0
           0           0      100000           0          -1           0
           0           0           0           0           0           0
           0           0           0           1           0           0
           0           0           1           0           0           0
           0           0           4          40           0           0
           0           0           0           0           0           0
           0           0           0           0           0           0
           0           0           0           0           0           0
           0           0           0           0           0           0
           0           0           0           0           0           0
           0           0           0           0           0           0
           0           0           0           0
Num RLSW                                   I               40
RLSW                                       R   N=          40
  1.00000000E+00  1.00000000E+00  1.00000000E+00  1.00000000E+00  1.00000000E+00
  0.00000000E+00  0.00000000E+00  1.00000000E+00  0.00000000E+00  0.00000000E+00
  0.00000000E+00  0.00000000E+00  1.00000000E+00  0.00000000E+00  0.00000000E+00
  0.00000000E+00  0.00000000E+00  1.00000000E+00  0.00000000E+00  0.00000000E+00
  0.00000000E+00  0.00000000E+00  1.00000000E+00  0.00000000E+00  0.00000000E+00
  0.00000000E+00  0.00000000E+00  1.00000000E+00  0.00000000E+00  0.00000000E+00
  0.00000000E+00  0.00000000E+00  0.00000000E+00  0.00000000E+00  0.00000000E+00
  0.00000000E+00  0.00000000E+00  0.00000000E+00  1.00000000E+00  1.00000000E+00
MxBond                                     I                3
NBond                                      I   N=          12
           3           3           1           3           1           3
           1           3           1           3           1           1
IBond                                      I   N=          36
           2           6          10           1           3           4
           2           0           0           2           5           8
           4           0           0           1           7           8
           6           0           0           4           6           9
           8           0           0           1          11          12
          10           0           0          10           0           0
RBond                                      R   N=          36
  1.00000000E+00  1.00000000E+00  1.00000000E+00  1.00000000E+00  1.00000000E+00
  1.50000000E+00  1.00000000E+00  0.00000000E+00  0.00000000E+00  1.50000000E+00
  1.00000000E+00  1.00000000E+00  1.00000000E+00  0.00000000E+00  0.00000000E+00
  1.00000000E+00  1.00000000E+00  1.50000000E+00  1.00000000E+00  0.00000000E+00
  0.00000000E+00  1.00000000E+00  1.50000000E+00  1.00000000E+00  1.00000000E+00
  0.00000000E+00  0.00000000E+00  1.00000000E+00  1.00000000E+00  1.00000000E+00
  1.00000000E+00  0.00000000E+00  0.00000000E+00  1.00000000E+00  0.00000000E+00
  0.00000000E+00
Virial Ratio                               R      2.001060005070293E+00
SCF Energy                                 R     -2.175399379764532E+02
MP2 Energy                                 R     -2.183473886672840E+02
Total Energy                               R     -2.183473886672840E+02
Post-SCF wavefunction norm                 R      1.145630669325878E+00
RMS Density                                R      6.675942287027532E-09
External E-field                           R   N=          35
  0.00000000E+00  0.00000000E+00  0.00000000E+00  0.00000000E+00  0.00000000E+00
  0.00000000E+00  0.00000000E+00  0.00000000E+00  0.00000000E+00  0.00000000E+00
  0.00000000E+00  0.00000000E+00  0.00000000E+00  0.00000000E+00  0.00000000E+00
  0.00000000E+00  0.00000000E+00  0.00000000E+00  0.00000000E+00  0.00000000E+00
  0.00000000E+00  0.00000000E+00  0.00000000E+00  0.00000000E+00  0.00000000E+00
  0.00000000E+00  0.00000000E+00  0.00000000E+00  0.00000000E+00  0.00000000E+00
  0.00000000E+00  0.00000000E+00  0.00000000E+00  0.00000000E+00  0.00000000E+00
IOpCl                                      I                0
IROHF                                      I                0
Alpha Orbital Energies                     R   N=         174
 -1.10338937E+01 -1.10337661E+01 -1.10324434E+01 -1.10316464E+01 -1.09977721E+01
 -7.39012997E+00 -9.50527705E-01 -7.59871916E-01 -7.45571389E-01 -5.57889317E-01
 -5.42326224E-01 -5.16748798E-01 -4.32234459E-01 -3.61585318E-01 -3.36371631E-01
 -3.31827000E-01 -3.00071786E-01 -2.88810740E-01 -2.67374391E-01 -1.01432465E-01
 -9.94585864E-02  1.47408582E-01  1.51879156E-01  1.60477475E-01  1.67489318E-01
  1.76830383E-01  1.88039274E-01  1.99970837E-01  2.12846441E-01  2.33978377E-01
  2.50087993E-01  2.62900443E-01  2.76984777E-01  2.81290019E-01  2.89545404E-01
  2.93722998E-01  3.05553457E-01  3.09875886E-01  3.19270397E-01  3.28446549E-01
  3.30755389E-01  3.31461207E-01  3.42338791E-01  3.63937825E-01  3.69189061E-01
  3.74619098E-01  3.84504923E-01  3.94695080E-01  4.10706368E-01  4.13173559E-01
  4.41096366E-01  4.47016942E-01  4.54455641E-01  4.61618962E-01  4.88513838E-01
  5.00793127E-01  5.11104804E-01  5.53221312E-01  5.72858097E-01  5.75300287E-01
  5.77219323E-01  6.34634270E-01  6.38775691E-01  7.19183611E-01  7.67875711E-01
  7.68457564E-01  7.89812664E-01  7.94840340E-01  8.56731159E-01  8.76639776E-01
  8.94953145E-01  9.12530536E-01  9.27497292E-01  9.34237955E-01  9.36905769E-01
  9.79989463E-01  9.81264042E-01  9.89778454E-01  1.01824661E+00  1.05639189E+00
  1.05863750E+00  1.07138114E+00  1.11590084E+00  1.15336556E+00  1.16182781E+00
  1.17435735E+00  1.18058228E+00  1.18903198E+00  1.20832917E+00  1.21271093E+00
  1.26926782E+00  1.26975852E+00  1.28076821E+00  1.29683208E+00  1.33745700E+00
  1.35744853E+00  1.45092575E+00  1.45214048E+00  1.48238904E+00  1.52806593E+00
  1.53246875E+00  1.54492353E+00  1.56832344E+00  1.66941378E+00  1.69083696E+00
  1.83488749E+00  1.84089701E+00  1.98841045E+00  2.00197349E+00  2.01156968E+00
  2.01461216E+00  2.02190429E+00  2.06220993E+00  2.06325466E+00  2.13043917E+00
  2.15229222E+00  2.15891882E+00  2.22322688E+00  2.25741781E+00  2.26804866E+00
  2.28076205E+00  2.36880505E+00  2.36997930E+00  2.37075610E+00  2.40574178E+00
  2.42934663E+00  2.44105946E+00  2.45517483E+00  2.52421188E+00  2.58226024E+00
  2.61187430E+00  2.65209211E+00  2.70542664E+00  2.71943692E+00  2.73985953E+00
  2.77053460E+00  2.89925388E+00  2.90312540E+00  3.00495462E+00  3.01139759E+00
  3.05667667E+00  3.09574243E+00  3.14125385E+00  3.17902251E+00  3.24031429E+00
  3.24686987E+00  3.26940734E+00  3.27963737E+00  3.28145653E+00  3.28833501E+00
  3.38153518E+00  3.38898078E+00  3.41881653E+00  3.51312646E+00  3.60191083E+00
  3.60898789E+00  3.67294121E+00  3.77548510E+00  3.84139058E+00  3.94988308E+00
  4.02885660E+00  4.06345515E+00  4.10608997E+00  4.66571466E+00  4.67308972E+00
  4.69003357E+00  4.71966095E+00  5.29576251E+00  1.57819615E+01  2.50015804E+01
  2.52594300E+01  2.53238931E+01  2.54812842E+01  2.55043687E+01
Alpha MO coefficients                      R   N=       30276
  8.54138255E-03  6.99380429E-03  1.55452041E-04  1.40494715E-08  0.00000000E+00
  4.82934779E-04  6.23209347E-05  1.64324908E-08  0.00000000E+00  1.46523871E-06
  2.29480457E-04 -2.94573850E-08  0.00000000E+00 -4.66005738E-03 -1.83503099E-03
 -1.28399793E-09  0.00000000E+00  5.29287058E-05  0.00000000E+00  0.00000000E+00
 -8.24123775E-05  8.37843363E-09  3.44437464E-01  2.85230467E-01  3.21554883E-05
  2.01281777E-04  0.00000000E+00  2.68544693E-03  1.50811316E-04 -2.92931463E-04
  0.00000000E+00 -6.43759416E-04 -2.04739999E-05  2.63623844E-04  0.00000000E+00
  3.92812232E-03  2.58041027E-04 -1.43099052E-03  0.00000000E+00 -1.95082471E-04
  0.00000000E+00  0.00000000E+00  3.62802107E-05 -4.43905266E-05  2.49882860E-04
 -3.97629410E-05  1.80920248E-04  7.18973332E-04  2.21591870E-05 -3.08505420E-05
  0.00000000E+00  1.99968358E-01  1.65548890E-01  1.26267380E-05  6.98295569E-07
  0.00000000E+00  1.82136497E-03 -2.20238062E-04 -5.79967207E-05  0.00000000E+00
 -3.07971028E-04 -1.60693493E-05 -1.61750485E-05  0.00000000E+00 -1.49558572E-03
  1.31390424E-04 -8.21805195E-05  0.00000000E+00 -5.08285621E-05  0.00000000E+00
  0.00000000E+00  6.36914454E-06 -8.31047577E-05  1.53998576E-04  9.26161237E-06
  2.13802373E-04  6.41541021E-05 -3.33541496E-05 -2.12279996E-05  0.00000000E+00
  3.44384493E-01  2.85186598E-01  3.21501372E-05 -2.01255754E-04  0.00000000E+00
  2.68504026E-03  1.50793549E-04  2.92905222E-04  0.00000000E+00 -6.43747551E-04
 -2.04588012E-05 -2.63629908E-04  0.00000000E+00  3.92795322E-03  2.57979721E-04
  1.43078902E-03  0.00000000E+00 -1.95051212E-04  0.00000000E+00  0.00000000E+00
  3.62730791E-05  4.43856597E-05  2.49844254E-04 -3.97416429E-05  1.80857255E-04
  7.18869283E-04  2.21563861E-05  3.08513723E-05  0.00000000E+00  1.99933880E-01
  1.65520337E-01  1.26234636E-05 -6.77469561E-07  0.00000000E+00  1.82110016E-03
 -2.20200667E-04  5.80228989E-05  0.00000000E+00 -3.07914982E-04 -1.60944927E-05
  1.61783384E-05  0.00000000E+00 -1.49567821E-03  1.31515733E-04  8.21290918E-05
  0.00000000E+00 -5.08135100E-05  0.00000000E+00  0.00000000E+00  6.34942544E-06
  8.30991079E-05  1.53973612E-04  9.27859007E-06  2.13767059E-04  6.40905815E-05
 -3.33526256E-05  2.12315683E-05  0.00000000E+00  4.54353038E-06 -7.82905601E-06
  3.43301976E-06 -9.52968470E-10  0.00000000E+00  8.11087645E-05  4.22266775E-05
  3.72651926E-09  0.00000000E+00 -4.21909032E-05  3.34691873E-05  9.23540275E-09
  0.00000000E+00 -1.48022793E-03 -4.25084512E-04 -7.91611028E-09  0.00000000E+00
 -1.06940932E-06  0.00000000E+00  0.00000000E+00  9.36065551E-06  6.02215185E-09
 -3.94654064E-06  2.19323109E-05 -5.75821136E-05  8.80937753E-05 -1.71259182E-06
 -2.22028930E-06  0.00000000E+00 -3.94735860E-06  2.19309795E-05 -5.75716339E-05
  8.80793601E-05 -1.71182712E-06  2.21816949E-06  0.00000000E+00  6.67840271E-07
  5.46453649E-07  1.22192555E-08 -1.72233307E-04  0.00000000E+00  3.87306971E-08
  7.66314543E-09 -2.95723643E-04  0.00000000E+00  9.37267699E-09  2.74284824E-08
  2.92383340E-04  0.00000000E+00 -3.11084685E-07 -1.22812205E-07 -7.76464931E-06
  0.00000000E+00  3.89959866E-09  0.00000000E+00  0.00000000E+00 -9.00272623E-09
 -1.34492938E-04 -3.76752717E-01 -3.12014140E-01  2.31250660E-07 -2.13982578E-04
  0.00000000E+00 -2.79699441E-03 -1.71550656E-04  1.90526908E-04  0.00000000E+00
  1.83734810E-04  6.48572751E-05 -2.95873190E-05  0.00000000E+00 -1.96822246E-03
 -2.81648768E-04  1.64883812E-03  0.00000000E+00  2.30254884E-04  0.00000000E+00
  0.00000000E+00 -5.22672739E-05  8.60741540E-05 -2.68032818E-04  1.22991854E-04
 -3.53953189E-04 -9.65022285E-04 -2.11683851E-05 -2.03699683E-06  0.00000000E+00
 -1.29196456E-01 -1.06978593E-01  5.70290614E-05 -9.21757952E-05  0.00000000E+00
 -1.07810013E-03  1.29064441E-04 -1.47249636E-04  0.00000000E+00  2.80774945E-04
 -8.86075791E-05  1.41662514E-05  0.00000000E+00  1.05496757E-03  3.83937674E-04
 -1.54048962E-04  0.00000000E+00  2.62705677E-05  0.00000000E+00  0.00000000E+00
 -7.95347907E-05  5.89895023E-05 -9.80038323E-05  7.35519656E-05 -1.71026050E-04
 -1.61556085E-04  9.25253295E-06 -1.79259981E-05  0.00000000E+00  3.76813869E-01
  3.12064781E-01 -2.31595331E-07 -2.14022211E-04  0.00000000E+00  2.79745319E-03
  1.71580467E-04  1.90576425E-04  0.00000000E+00 -1.83849184E-04 -6.48603899E-05
 -2.96416186E-05  0.00000000E+00  1.96883440E-03  2.81697949E-04  1.64905556E-03
  0.00000000E+00 -2.30291591E-04  0.00000000E+00  0.00000000E+00  5.22731178E-05
  8.60864980E-05  2.68076607E-04 -1.22999470E-04  3.53976998E-04  9.65131518E-04
  2.11716678E-05 -2.03177913E-06  0.00000000E+00  1.29213197E-01  1.06992448E-01
 -5.70395776E-05 -9.21789808E-05  0.00000000E+00  1.07827250E-03 -1.29087798E-04
 -1.47249066E-04  0.00000000E+00 -2.80807954E-04  8.86007100E-05  1.41721680E-05