Clamp-5                                                                 
SP        RMP2-FC                                                     6-311++G(d,p)       
Number of atoms                            I               12
Info1-9                                    I   N=           9
          23          21           0           0           0         110
           1           2           1
Charge                                     I                0
Multiplicity                               I                1
Number of electrons                        I               42
Number of alpha electrons                  I               21
Number of beta electrons                   I               21
Number of basis functions                  I              174
Number of independent functions            I              174
Number of point charges in /Mol/           I                0
Number of translation vectors              I                0
Atomic numbers                             I   N=          12
           6           6           6           6           6           6
           1           1           1           1           1           1
Nuclear charges                            R   N=          12
  6.00000000E+00  6.00000000E+00  6.00000000E+00  6.00000000E+00  6.00000000E+00
  6.00000000E+00  1.00000000E+00  1.00000000E+00  1.00000000E+00  1.00000000E+00
  1.00000000E+00  1.00000000E+00
Current cartesian coordinates              R   N=          36
 -9.86076132E-32  2.63686715E+00  8.63811813E-03  0.00000000E+00  1.32587343E+00
  2.27920832E+00 -1.62372665E-16 -1.32587343E+00  2.27920832E+00 -3.22923092E-16
 -2.63686715E+00  8.63811813E-03  9.86076132E-32 -1.31092947E+00 -2.28783267E+00
  1.60542558E-16  1.31092947E+00 -2.28783267E+00  0.00000000E+00  4.67832129E+00
 -1.70009032E-01  0.00000000E+00  2.19192736E+00  4.13646140E+00 -2.68433682E-16
 -2.19192736E+00  4.13646140E+00 -5.72929119E-16 -4.67832129E+00 -1.70009032E-01
  0.00000000E+00 -2.48630889E+00 -3.96653497E+00  3.04485023E-16  2.48630889E+00
 -3.96653497E+00
Force Field                                I                0
Int Atom Types                             I   N=          12
           0           0           0           0           0           0
           0           0           0           0           0           0
MM charges                                 R   N=          12
  0.00000000E+00  0.00000000E+00  0.00000000E+00  0.00000000E+00  0.00000000E+00
  0.00000000E+00  0.00000000E+00  0.00000000E+00  0.00000000E+00  0.00000000E+00
  0.00000000E+00  0.00000000E+00
Integer atomic weights                     I   N=          12
          12          12          12          12          12          12
           1           1           1           1           1           1
Real atomic weights                        R   N=          12
  1.20000000E+01  1.20000000E+01  1.20000000E+01  1.20000000E+01  1.20000000E+01
  1.20000000E+01  1.00782504E+00  1.00782504E+00  1.00782504E+00  1.00782504E+00
  1.00782504E+00  1.00782504E+00
Atom fragment info                         I   N=          12
           0           0           0           0           0           0
           0           0           0           0           0           0
Atom residue num                           I   N=          12
           0           0           0           0           0           0
           0           0           0           0           0           0
Nuclear spins                              I   N=          12
           0           0           0           0           0           0
           1           1           1           1           1           1
Nuclear ZEff                               R   N=          12
 -3.60000000E+00 -3.60000000E+00 -3.60000000E+00 -3.60000000E+00 -3.60000000E+00
 -3.60000000E+00 -1.00000000E+00 -1.00000000E+00 -1.00000000E+00 -1.00000000E+00
 -1.00000000E+00 -1.00000000E+00
Nuclear QMom                               R   N=          12
  0.00000000E+00  0.00000000E+00  0.00000000E+00  0.00000000E+00  0.00000000E+00
  0.00000000E+00  0.00000000E+00  0.00000000E+00  0.00000000E+00  0.00000000E+00
  0.00000000E+00  0.00000000E+00
Nuclear GFac                               R   N=          12
  0.00000000E+00  0.00000000E+00  0.00000000E+00  0.00000000E+00  0.00000000E+00
  0.00000000E+00  2.79284600E+00  2.79284600E+00  2.79284600E+00  2.79284600E+00
  2.79284600E+00  2.79284600E+00
MicOpt                                     I   N=          12
          -1          -1          -1          -1          -1          -1
          -1          -1          -1          -1          -1          -1
Number of contracted shells                I               66
Number of primitive shells                 I              120
Pure/Cartesian d shells                    I                0
Pure/Cartesian f shells                    I                0
Highest angular momentum                   I                2
Largest degree of contraction              I                6
Shell types                                I   N=          66
           0          -1          -1          -1          -1          -2
           0          -1          -1          -1          -1          -2
           0          -1          -1          -1          -1          -2
           0          -1          -1          -1          -1          -2
           0          -1          -1          -1          -1          -2
           0          -1          -1          -1          -1          -2
           0           0           0           0           1           0
           0           0           0           1           0           0
           0           0           1           0           0           0
           0           1           0           0           0           0
           1           0           0           0           0           1
Number of primitives per shell             I   N=          66
           6           3           1           1           1           1
           6           3           1           1           1           1
           6           3           1           1           1           1
           6           3           1           1           1           1
           6           3           1           1           1           1
           6           3           1           1           1           1
           3           1           1           1           1           3
           1           1           1           1           3           1
           1           1           1           3           1           1
           1           1           3           1           1           1
           1           3           1           1           1           1
Shell to atom map                          I   N=          66
           1           1           1           1           1           1
           2           2           2           2           2           2
           3           3           3           3           3           3
           4           4           4           4           4           4
           5           5           5           5           5           5
           6           6           6           6           6           6
           7           7           7           7           7           8
           8           8           8           8           9           9
           9           9           9          10          10          10
          10          10          11          11          11          11
          11          12          12          12          12          12
Primitive exponents                        R   N=         120
  4.56324000E+03  6.82024000E+02  1.54973000E+02  4.44553000E+01  1.30290000E+01
  1.82773000E+00  2.09642000E+01  4.80331000E+00  1.45933000E+00  4.83456000E-01
  1.45585000E-01  4.38000000E-02  6.26000000E-01  4.56324000E+03  6.82024000E+02
  1.54973000E+02  4.44553000E+01  1.30290000E+01  1.82773000E+00  2.09642000E+01
  4.80331000E+00  1.45933000E+00  4.83456000E-01  1.45585000E-01  4.38000000E-02
  6.26000000E-01  4.56324000E+03  6.82024000E+02  1.54973000E+02  4.44553000E+01
  1.30290000E+01  1.82773000E+00  2.09642000E+01  4.80331000E+00  1.45933000E+00
  4.83456000E-01  1.45585000E-01  4.38000000E-02  6.26000000E-01  4.56324000E+03
  6.82024000E+02  1.54973000E+02  4.44553000E+01  1.30290000E+01  1.82773000E+00
  2.09642000E+01  4.80331000E+00  1.45933000E+00  4.83456000E-01  1.45585000E-01
  4.38000000E-02  6.26000000E-01  4.56324000E+03  6.82024000E+02  1.54973000E+02
  4.44553000E+01  1.30290000E+01  1.82773000E+00  2.09642000E+01  4.80331000E+00
  1.45933000E+00  4.83456000E-01  1.45585000E-01  4.38000000E-02  6.26000000E-01
  4.56324000E+03  6.82024000E+02  1.54973000E+02  4.44553000E+01  1.30290000E+01
  1.82773000E+00  2.09642000E+01  4.80331000E+00  1.45933000E+00  4.83456000E-01
  1.45585000E-01  4.38000000E-02  6.26000000E-01  3.38650000E+01  5.09479000E+00
  1.15879000E+00  3.25840000E-01  1.02741000E-01  3.60000000E-02  7.50000000E-01
  3.38650000E+01  5.09479000E+00  1.15879000E+00  3.25840000E-01  1.02741000E-01
  3.60000000E-02  7.50000000E-01  3.38650000E+01  5.09479000E+00  1.15879000E+00
  3.25840000E-01  1.02741000E-01  3.60000000E-02  7.50000000E-01  3.38650000E+01
  5.09479000E+00  1.15879000E+00  3.25840000E-01  1.02741000E-01  3.60000000E-02
  7.50000000E-01  3.38650000E+01  5.09479000E+00  1.15879000E+00  3.25840000E-01
  1.02741000E-01  3.60000000E-02  7.50000000E-01  3.38650000E+01  5.09479000E+00
  1.15879000E+00  3.25840000E-01  1.02741000E-01  3.60000000E-02  7.50000000E-01
Contraction coefficients                   R   N=         120
  1.96665025E-03  1.52306019E-02  7.61269097E-02  2.60801033E-01  6.16462078E-01
  2.21006028E-01  1.14660081E-01  9.19999648E-01 -3.03068213E-03  1.00000000E+00
  1.00000000E+00  1.00000000E+00  1.00000000E+00  1.96665025E-03  1.52306019E-02
  7.61269097E-02  2.60801033E-01  6.16462078E-01  2.21006028E-01  1.14660081E-01
  9.19999648E-01 -3.03068213E-03  1.00000000E+00  1.00000000E+00  1.00000000E+00
  1.00000000E+00  1.96665025E-03  1.52306019E-02  7.61269097E-02  2.60801033E-01
  6.16462078E-01  2.21006028E-01  1.14660081E-01  9.19999648E-01 -3.03068213E-03
  1.00000000E+00  1.00000000E+00  1.00000000E+00  1.00000000E+00  1.96665025E-03
  1.52306019E-02  7.61269097E-02  2.60801033E-01  6.16462078E-01  2.21006028E-01
  1.14660081E-01  9.19999648E-01 -3.03068213E-03  1.00000000E+00  1.00000000E+00
  1.00000000E+00  1.00000000E+00  1.96665025E-03  1.52306019E-02  7.61269097E-02
  2.60801033E-01  6.16462078E-01  2.21006028E-01  1.14660081E-01  9.19999648E-01
 -3.03068213E-03  1.00000000E+00  1.00000000E+00  1.00000000E+00  1.00000000E+00
  1.96665025E-03  1.52306019E-02  7.61269097E-02  2.60801033E-01  6.16462078E-01
  2.21006028E-01  1.14660081E-01  9.19999648E-01 -3.03068213E-03  1.00000000E+00
  1.00000000E+00  1.00000000E+00  1.00000000E+00  2.54938145E-02  1.90373109E-01
  8.52161486E-01  1.00000000E+00  1.00000000E+00  1.00000000E+00  1.00000000E+00
  2.54938145E-02  1.90373109E-01  8.52161486E-01  1.00000000E+00  1.00000000E+00
  1.00000000E+00  1.00000000E+00  2.54938145E-02  1.90373109E-01  8.52161486E-01
  1.00000000E+00  1.00000000E+00  1.00000000E+00  1.00000000E+00  2.54938145E-02
  1.90373109E-01  8.52161486E-01  1.00000000E+00  1.00000000E+00  1.00000000E+00
  1.00000000E+00  2.54938145E-02  1.90373109E-01  8.52161486E-01  1.00000000E+00
  1.00000000E+00  1.00000000E+00  1.00000000E+00  2.54938145E-02  1.90373109E-01
  8.52161486E-01  1.00000000E+00  1.00000000E+00  1.00000000E+00  1.00000000E+00
P(S=P) Contraction coefficients            R   N=         120
  0.00000000E+00  0.00000000E+00  0.00000000E+00  0.00000000E+00  0.00000000E+00
  0.00000000E+00  4.02486927E-02  2.37593957E-01  8.15853851E-01  1.00000000E+00
  1.00000000E+00  1.00000000E+00  0.00000000E+00  0.00000000E+00  0.00000000E+00
  0.00000000E+00  0.00000000E+00  0.00000000E+00  0.00000000E+00  4.02486927E-02
  2.37593957E-01  8.15853851E-01  1.00000000E+00  1.00000000E+00  1.00000000E+00
  0.00000000E+00  0.00000000E+00  0.00000000E+00  0.00000000E+00  0.00000000E+00
  0.00000000E+00  0.00000000E+00  4.02486927E-02  2.37593957E-01  8.15853851E-01
  1.00000000E+00  1.00000000E+00  1.00000000E+00  0.00000000E+00  0.00000000E+00
  0.00000000E+00  0.00000000E+00  0.00000000E+00  0.00000000E+00  0.00000000E+00
  4.02486927E-02  2.37593957E-01  8.15853851E-01  1.00000000E+00  1.00000000E+00
  1.00000000E+00  0.00000000E+00  0.00000000E+00  0.00000000E+00  0.00000000E+00
  0.00000000E+00  0.00000000E+00  0.00000000E+00  4.02486927E-02  2.37593957E-01
  8.15853851E-01  1.00000000E+00  1.00000000E+00  1.00000000E+00  0.00000000E+00
  0.00000000E+00  0.00000000E+00  0.00000000E+00  0.00000000E+00  0.00000000E+00
  0.00000000E+00  4.02486927E-02  2.37593957E-01  8.15853851E-01  1.00000000E+00
  1.00000000E+00  1.00000000E+00  0.00000000E+00  0.00000000E+00  0.00000000E+00
  0.00000000E+00  0.00000000E+00  0.00000000E+00  0.00000000E+00  0.00000000E+00
  0.00000000E+00  0.00000000E+00  0.00000000E+00  0.00000000E+00  0.00000000E+00
  0.00000000E+00  0.00000000E+00  0.00000000E+00  0.00000000E+00  0.00000000E+00
  0.00000000E+00  0.00000000E+00  0.00000000E+00  0.00000000E+00  0.00000000E+00
  0.00000000E+00  0.00000000E+00  0.00000000E+00  0.00000000E+00  0.00000000E+00
  0.00000000E+00  0.00000000E+00  0.00000000E+00  0.00000000E+00  0.00000000E+00
  0.00000000E+00  0.00000000E+00  0.00000000E+00  0.00000000E+00  0.00000000E+00
  0.00000000E+00  0.00000000E+00  0.00000000E+00  0.00000000E+00  0.00000000E+00
Coordinates of each shell                  R   N=         198
  0.00000000E+00  2.63686715E+00  8.63811813E-03  0.00000000E+00  2.63686715E+00
  8.63811813E-03  0.00000000E+00  2.63686715E+00  8.63811813E-03  0.00000000E+00
  2.63686715E+00  8.63811813E-03  0.00000000E+00  2.63686715E+00  8.63811813E-03
  0.00000000E+00  2.63686715E+00  8.63811813E-03  0.00000000E+00  1.32587343E+00
  2.27920832E+00  0.00000000E+00  1.32587343E+00  2.27920832E+00  0.00000000E+00
  1.32587343E+00  2.27920832E+00  0.00000000E+00  1.32587343E+00  2.27920832E+00
  0.00000000E+00  1.32587343E+00  2.27920832E+00  0.00000000E+00  1.32587343E+00
  2.27920832E+00 -1.62372665E-16 -1.32587343E+00  2.27920832E+00 -1.62372665E-16
 -1.32587343E+00  2.27920832E+00 -1.62372665E-16 -1.32587343E+00  2.27920832E+00
 -1.62372665E-16 -1.32587343E+00  2.27920832E+00 -1.62372665E-16 -1.32587343E+00
  2.27920832E+00 -1.62372665E-16 -1.32587343E+00  2.27920832E+00 -3.22923092E-16
 -2.63686715E+00  8.63811813E-03 -3.22923092E-16 -2.63686715E+00  8.63811813E-03
 -3.22923092E-16 -2.63686715E+00  8.63811813E-03 -3.22923092E-16 -2.63686715E+00
  8.63811813E-03 -3.22923092E-16 -2.63686715E+00  8.63811813E-03 -3.22923092E-16
 -2.63686715E+00  8.63811813E-03  0.00000000E+00 -1.31092947E+00 -2.28783267E+00
  0.00000000E+00 -1.31092947E+00 -2.28783267E+00  0.00000000E+00 -1.31092947E+00
 -2.28783267E+00  0.00000000E+00 -1.31092947E+00 -2.28783267E+00  0.00000000E+00
 -1.31092947E+00 -2.28783267E+00  0.00000000E+00 -1.31092947E+00 -2.28783267E+00
  1.60542558E-16  1.31092947E+00 -2.28783267E+00  1.60542558E-16  1.31092947E+00
 -2.28783267E+00  1.60542558E-16  1.31092947E+00 -2.28783267E+00  1.60542558E-16
  1.31092947E+00 -2.28783267E+00  1.60542558E-16  1.31092947E+00 -2.28783267E+00
  1.60542558E-16  1.31092947E+00 -2.28783267E+00  0.00000000E+00  4.67832129E+00
 -1.70009032E-01  0.00000000E+00  4.67832129E+00 -1.70009032E-01  0.00000000E+00
  4.67832129E+00 -1.70009032E-01  0.00000000E+00  4.67832129E+00 -1.70009032E-01
  0.00000000E+00  4.67832129E+00 -1.70009032E-01  0.00000000E+00  2.19192736E+00
  4.13646140E+00  0.00000000E+00  2.19192736E+00  4.13646140E+00  0.00000000E+00
  2.19192736E+00  4.13646140E+00  0.00000000E+00  2.19192736E+00  4.13646140E+00
  0.00000000E+00  2.19192736E+00  4.13646140E+00 -2.68433682E-16 -2.19192736E+00
  4.13646140E+00 -2.68433682E-16 -2.19192736E+00  4.13646140E+00 -2.68433682E-16
 -2.19192736E+00  4.13646140E+00 -2.68433682E-16 -2.19192736E+00  4.13646140E+00
 -2.68433682E-16 -2.19192736E+00  4.13646140E+00 -5.72929119E-16 -4.67832129E+00
 -1.70009032E-01 -5.72929119E-16 -4.67832129E+00 -1.70009032E-01 -5.72929119E-16
 -4.67832129E+00 -1.70009032E-01 -5.72929119E-16 -4.67832129E+00 -1.70009032E-01
 -5.72929119E-16 -4.67832129E+00 -1.70009032E-01  0.00000000E+00 -2.48630889E+00
 -3.96653497E+00  0.00000000E+00 -2.48630889E+00 -3.96653497E+00  0.00000000E+00
 -2.48630889E+00 -3.96653497E+00  0.00000000E+00 -2.48630889E+00 -3.96653497E+00
  0.00000000E+00 -2.48630889E+00 -3.96653497E+00  3.04485023E-16  2.48630889E+00
 -3.96653497E+00  3.04485023E-16  2.48630889E+00 -3.96653497E+00  3.04485023E-16
  2.48630889E+00 -3.96653497E+00  3.04485023E-16  2.48630889E+00 -3.96653497E+00
  3.04485023E-16  2.48630889E+00 -3.96653497E+00
Constraint Structure                       R   N=          36
  0.00000000E+00  2.63686715E+00  8.63811813E-03  0.00000000E+00  1.32587343E+00
  2.27920832E+00 -1.62372665E-16 -1.32587343E+00  2.27920832E+00 -3.22923092E-16
 -2.63686715E+00  8.63811813E-03  0.00000000E+00 -1.31092947E+00 -2.28783267E+00
  1.60542558E-16  1.31092947E+00 -2.28783267E+00  0.00000000E+00  4.67832129E+00
 -1.70009032E-01  0.00000000E+00  2.19192736E+00  4.13646140E+00 -2.68433682E-16
 -2.19192736E+00  4.13646140E+00 -5.72929119E-16 -4.67832129E+00 -1.70009032E-01
  0.00000000E+00 -2.48630889E+00 -3.96653497E+00  3.04485023E-16  2.48630889E+00
 -3.96653497E+00
Num ILSW                                   I              100
ILSW                                       I   N=         100
           0           0           0           0           2           0
           0           0           0           0           0          -1
           0           0           0           0           0           0
           0           0           0           0           0           0
           1           0           0           0           0           0
           0           0      100000           0          -1           0
           0           0           0           0           0           0
           0           0           0           1           0           0
           0           0           1           0           0           0
           0           0           4          40           0           0
           0           0           0           0           0           0
           0           0           0           0           0           0
           0           0           0           0           0           0
           0           0           0           0           0           0
           0           0           0           0           0           0
           0           0           0           0           0           0
           0           0           0           0
Num RLSW                                   I               40
RLSW                                       R   N=          40
  1.00000000E+00  1.00000000E+00  1.00000000E+00  1.00000000E+00  1.00000000E+00
  0.00000000E+00  0.00000000E+00  1.00000000E+00  0.00000000E+00  0.00000000E+00
  0.00000000E+00  0.00000000E+00  1.00000000E+00  0.00000000E+00  0.00000000E+00
  0.00000000E+00  0.00000000E+00  1.00000000E+00  0.00000000E+00  0.00000000E+00
  0.00000000E+00  0.00000000E+00  1.00000000E+00  0.00000000E+00  0.00000000E+00
  0.00000000E+00  0.00000000E+00  1.00000000E+00  0.00000000E+00  0.00000000E+00
  0.00000000E+00  0.00000000E+00  0.00000000E+00  0.00000000E+00  0.00000000E+00
  0.00000000E+00  0.00000000E+00  0.00000000E+00  1.00000000E+00  1.00000000E+00
MxBond                                     I                3
NBond                                      I   N=          12
           3           3           3           3           3           3
           1           1           1           1           1           1
IBond                                      I   N=          36
           2           6           7           1           3           8
           2           4           9           3           5          10
           4           6          11           1           5          12
           1           0           0           2           0           0
           3           0           0           4           0           0
           5           0           0           6           0           0
RBond                                      R   N=          36
  1.50000000E+00  1.50000000E+00  1.00000000E+00  1.50000000E+00  1.50000000E+00
  1.00000000E+00  1.50000000E+00  1.50000000E+00  1.00000000E+00  1.50000000E+00
  1.50000000E+00  1.00000000E+00  1.50000000E+00  1.50000000E+00  1.00000000E+00
  1.50000000E+00  1.50000000E+00  1.00000000E+00  1.00000000E+00  0.00000000E+00
  0.00000000E+00  1.00000000E+00  0.00000000E+00  0.00000000E+00  1.00000000E+00
  0.00000000E+00  0.00000000E+00  1.00000000E+00  0.00000000E+00  0.00000000E+00
  1.00000000E+00  0.00000000E+00  0.00000000E+00  1.00000000E+00  0.00000000E+00
  0.00000000E+00
Virial Ratio                               R      2.001291297804509E+00
SCF Energy                                 R     -2.307503644530800E+02
MP2 Energy                                 R     -2.315790658695119E+02
Total Energy                               R     -2.315790658695119E+02
Post-SCF wavefunction norm                 R      1.143570543845241E+00
RMS Density                                R      7.611870049074960E-09
External E-field                           R   N=          35
  0.00000000E+00  0.00000000E+00  0.00000000E+00  0.00000000E+00  0.00000000E+00
  0.00000000E+00  0.00000000E+00  0.00000000E+00  0.00000000E+00  0.00000000E+00
  0.00000000E+00  0.00000000E+00  0.00000000E+00  0.00000000E+00  0.00000000E+00
  0.00000000E+00  0.00000000E+00  0.00000000E+00  0.00000000E+00  0.00000000E+00
  0.00000000E+00  0.00000000E+00  0.00000000E+00  0.00000000E+00  0.00000000E+00
  0.00000000E+00  0.00000000E+00  0.00000000E+00  0.00000000E+00  0.00000000E+00
  0.00000000E+00  0.00000000E+00  0.00000000E+00  0.00000000E+00  0.00000000E+00
IOpCl                                      I                0
IROHF                                      I                0
Alpha Orbital Energies                     R   N=         174
 -1.12395300E+01 -1.12389631E+01 -1.12389617E+01 -1.12377334E+01 -1.12377320E+01
 -1.12371324E+01 -1.15214276E+00 -1.01677196E+00 -1.01676894E+00 -8.25793641E-01
 -8.25787224E-01 -7.12545136E-01 -6.43684213E-01 -6.19563691E-01 -5.89597687E-01
 -5.89586970E-01 -5.01934668E-01 -4.94561225E-01 -4.94546010E-01 -3.37248422E-01
 -3.37247890E-01  4.20895842E-02  4.89439453E-02  4.89443226E-02  6.63064755E-02
  6.63067646E-02  8.81378641E-02  1.08886442E-01  1.08890985E-01  1.29314992E-01
  1.52601425E-01  1.52601874E-01  1.57749392E-01  1.62606158E-01  1.79618732E-01
  1.79620025E-01  1.84518102E-01  1.84518175E-01  1.92344260E-01  2.09218456E-01
  2.12445314E-01  2.12445962E-01  2.16070389E-01  2.16072987E-01  2.17361365E-01
  2.28031556E-01  2.28032830E-01  2.50356588E-01  2.50357042E-01  2.88795840E-01
  2.88796854E-01  3.02762114E-01  3.33386606E-01  3.33777925E-01  3.68094047E-01
  4.02978785E-01  4.02981957E-01  4.32596749E-01  4.32599239E-01  4.39988133E-01
  4.95550260E-01  4.95553809E-01  5.11480345E-01  5.11485564E-01  5.98761378E-01
  6.17575984E-01  7.15250687E-01  7.19953994E-01  7.22840039E-01  7.22841097E-01
  7.50926739E-01  7.50931459E-01  7.55445337E-01  7.57630867E-01  7.57633013E-01
  7.96486229E-01  8.19368165E-01  8.19370035E-01  8.85761244E-01  9.34852929E-01
  9.34859071E-01  9.52056282E-01  9.52061055E-01  9.74411856E-01  1.01569145E+00
  1.01770009E+00  1.01770138E+00  1.05862284E+00  1.05862353E+00  1.10122225E+00
  1.12161568E+00  1.12162016E+00  1.13211645E+00  1.16862324E+00  1.21724045E+00
  1.21724787E+00  1.24849469E+00  1.32205668E+00  1.32206953E+00  1.39243312E+00
  1.39244206E+00  1.52469011E+00  1.55862134E+00  1.70143372E+00  1.76900578E+00
  1.76903190E+00  1.78757037E+00  1.82244443E+00  1.84017205E+00  1.84017823E+00
  1.87846703E+00  1.87848179E+00  1.96216396E+00  1.96216989E+00  1.99060219E+00
  2.05406043E+00  2.05406060E+00  2.12180880E+00  2.12182413E+00  2.14124236E+00
  2.21722855E+00  2.22936575E+00  2.22939288E+00  2.24345664E+00  2.24346810E+00
  2.29742163E+00  2.34964005E+00  2.34964580E+00  2.38589883E+00  2.38590604E+00
  2.59869276E+00  2.70024012E+00  2.72222372E+00  2.72223402E+00  2.74286007E+00
  2.81781245E+00  2.81782384E+00  2.96161271E+00  2.96163144E+00  2.96380198E+00
  2.96956419E+00  3.01026081E+00  3.01026571E+00  3.05726969E+00  3.06313397E+00
  3.06314007E+00  3.09983269E+00  3.19093240E+00  3.19093798E+00  3.28347979E+00
  3.29331081E+00  3.29331353E+00  3.32648531E+00  3.32649628E+00  3.47988479E+00
  3.54450431E+00  3.76754797E+00  3.76756357E+00  3.90793368E+00  3.90793687E+00
  3.90985814E+00  4.07018964E+00  4.40402158E+00  4.40403434E+00  4.50075614E+00
  4.57056266E+00  4.57057639E+00  5.27343733E+00  2.47414720E+01  2.51272240E+01
  2.51272510E+01  2.52677953E+01  2.52678091E+01  2.53729920E+01
Alpha MO coefficients                      R   N=       30276
  2.30086204E-01  1.90507705E-01  0.00000000E+00 -3.14760671E-05  1.00339581E-05
  2.02569550E-03  0.00000000E+00 -1.79711919E-04 -5.05857554E-06 -3.87517514E-04
  0.00000000E+00  1.37139117E-05  8.29958873E-06 -1.03133980E-04  0.00000000E+00
 -1.99124483E-04  2.86410709E-05  1.13876845E-04  0.00000000E+00 -1.10277776E-05
 -7.03887642E-05  0.00000000E+00  2.29669992E-01  1.90162981E-01  0.00000000E+00
 -6.91350050E-06 -3.24934962E-05  2.02259634E-03  0.00000000E+00 -9.40088892E-05
 -1.53011576E-04 -3.87035136E-04  0.00000000E+00  1.38910093E-05  7.67185120E-06
 -1.06673246E-04  0.00000000E+00 -7.34815179E-05 -1.85297481E-04  3.96253951E-05
  0.00000000E+00 -6.04263306E-05 -1.12881163E-04  0.00000000E+00  2.29669992E-01
  1.90162981E-01  0.00000000E+00  6.91350050E-06 -3.24934962E-05  2.02259634E-03
  0.00000000E+00  9.40088892E-05 -1.53011576E-04 -3.87035136E-04  0.00000000E+00
 -1.38910093E-05  7.67185120E-06 -1.06673246E-04  0.00000000E+00  7.34815179E-05
 -1.85297481E-04  3.96253951E-05  0.00000000E+00  6.04263306E-05 -1.12881163E-04
  0.00000000E+00  2.30086204E-01  1.90507705E-01  0.00000000E+00  3.14760671E-05
  1.00339581E-05  2.02569550E-03  0.00000000E+00  1.79711919E-04 -5.05857554E-06
 -3.87517514E-04  0.00000000E+00 -1.37139117E-05  8.29958873E-06 -1.03133980E-04
  0.00000000E+00  1.99124483E-04  2.86410709E-05  1.13876845E-04  0.00000000E+00
  1.10277776E-05 -7.03887642E-05  0.00000000E+00  2.29971720E-01  1.90412838E-01
  0.00000000E+00  2.45422420E-05  2.22980319E-05  2.02505792E-03  0.00000000E+00
  8.54969907E-05  1.58158915E-04 -3.87439963E-04  0.00000000E+00  3.38194684E-07
 -1.58805709E-05 -1.07109312E-04  0.00000000E+00  1.24476587E-04  1.57073036E-04
  2.31089526E-05  0.00000000E+00 -4.94567348E-05 -1.22625249E-04  0.00000000E+00
  2.29971720E-01  1.90412838E-01  0.00000000E+00 -2.45422420E-05  2.22980319E-05
  2.02505792E-03  0.00000000E+00 -8.54969907E-05  1.58158915E-04 -3.87439963E-04
  0.00000000E+00 -3.38194684E-07 -1.58805709E-05 -1.07109312E-04  0.00000000E+00
 -1.24476587E-04  1.57073036E-04  2.31089526E-05  0.00000000E+00  4.94567348E-05
 -1.22625249E-04  0.00000000E+00  1.77472620E-04 -2.44606970E-05  2.51600361E-04
  9.47464856E-05  0.00000000E+00 -2.66584633E-05  1.48749652E-05  1.77163846E-04
 -2.43155658E-05  2.51171080E-04  9.39697385E-05  0.00000000E+00 -4.46407087E-07
 -3.05191273E-05  1.77163846E-04 -2.43155658E-05  2.51171080E-04  9.39697385E-05
  0.00000000E+00  4.46407087E-07 -3.05191273E-05  1.77472620E-04 -2.44606970E-05
  2.51600361E-04  9.47464856E-05  0.00000000E+00  2.66584633E-05  1.48749652E-05
  1.77392904E-04 -2.43742025E-05  2.51578427E-04  9.45311249E-05  0.00000000E+00
  2.62335226E-05  1.56692243E-05  1.77392904E-04 -2.43742025E-05  2.51578427E-04
  9.45311249E-05  0.00000000E+00 -2.62335226E-05  1.56692243E-05  3.25163726E-01
  2.69271515E-01  0.00000000E+00 -6.54400197E-06  1.87920836E-05  2.66068324E-03
  0.00000000E+00 -1.33548300E-04 -8.07944643E-06 -3.22289027E-04  0.00000000E+00
 -1.43168393E-05  9.67869444E-07 -1.44396699E-03  0.00000000E+00 -1.17572297E-03
  1.94269870E-04  1.72140815E-04  0.00000000E+00 -3.22315335E-05 -1.27688914E-04
  0.00000000E+00  1.70946454E-01  1.41564172E-01  0.00000000E+00  1.45039594E-04
 -8.94890331E-05  1.38655064E-03  0.00000000E+00  8.81772828E-05 -9.15325657E-05
 -1.49360276E-04  0.00000000E+00 -1.57517404E-04  1.25143503E-04 -1.51041300E-03
  0.00000000E+00  6.87578331E-04 -9.61608232E-04  1.12797801E-04  0.00000000E+00
 -1.03059643E-04 -5.95185012E-05  0.00000000E+00 -1.70946454E-01 -1.41564172E-01
  0.00000000E+00  1.45039594E-04  8.94890331E-05 -1.38655064E-03  0.00000000E+00
  8.81772828E-05  9.15325657E-05  1.49360276E-04  0.00000000E+00 -1.57517404E-04
 -1.25143503E-04  1.51041300E-03  0.00000000E+00  6.87578331E-04  9.61608232E-04
 -1.12797801E-04  0.00000000E+00 -1.03059643E-04  5.95185012E-05  0.00000000E+00
 -3.25163726E-01 -2.69271515E-01  0.00000000E+00 -6.54400197E-06 -1.87920836E-05
 -2.66068324E-03  0.00000000E+00 -1.33548300E-04  8.07944643E-06  3.22289027E-04
  0.00000000E+00 -1.43168393E-05 -9.67869444E-07  1.44396699E-03  0.00000000E+00
 -1.17572297E-03 -1.94269870E-04 -1.72140815E-04  0.00000000E+00 -3.22315335E-05
  1.27688914E-04  0.00000000E+00 -1.53829989E-01 -1.27386509E-01  0.00000000E+00
  1.30332319E-04 -7.73444427E-05 -1.27152363E-03  0.00000000E+00  6.37705699E-05
 -1.50281730E-04  1.70380005E-04  0.00000000E+00 -1.96681711E-04  6.07565034E-05
 -7.81332899E-05  0.00000000E+00  4.19902739E-04 -1.03842982E-03 -8.98453837E-05
  0.00000000E+00  6.52192571E-05  5.01216455E-05  0.00000000E+00  1.53829989E-01
  1.27386509E-01  0.00000000E+00  1.30332319E-04  7.73444427E-05  1.27152363E-03
  0.00000000E+00  6.37705699E-05  1.50281730E-04 -1.70380005E-04  0.00000000E+00