14-H                                                                    
SP        RMP2-FC                                                     6-311++G(d,p)       
Number of atoms                            I               16
Info1-9                                    I   N=           9
          29          25           0           0           0         110
           1           2           1
Charge                                     I                1
Multiplicity                               I                1
Number of electrons                        I               56
Number of alpha electrons                  I               28
Number of beta electrons                   I               28
Number of basis functions                  I              232
Number of independent functions            I              232
Number of point charges in /Mol/           I                0
Number of translation vectors              I                0
Atomic numbers                             I   N=          16
           6           6           6           6           6           6
           6           1           1           1           1           1
           1           7           1           1
Nuclear charges                            R   N=          16
  6.00000000E+00  6.00000000E+00  6.00000000E+00  6.00000000E+00  6.00000000E+00
  6.00000000E+00  6.00000000E+00  1.00000000E+00  1.00000000E+00  1.00000000E+00
  1.00000000E+00  1.00000000E+00  1.00000000E+00  7.00000000E+00  1.00000000E+00
  1.00000000E+00
Current cartesian coordinates              R   N=          48
  1.29644472E+00 -3.61275574E+00  6.01215055E-16  2.93404927E+00 -1.49428582E+00
  5.42340440E-16 -1.29610835E+00 -3.61287480E+00  2.83710635E-16 -2.93389998E+00
 -1.49452204E+00 -1.76298803E-16 -2.39410160E+00  1.03926623E+00 -4.20487388E-16
  1.54993536E-16  2.28017001E+00 -2.79240318E-16  2.39411105E+00  1.03954590E+00
  1.65907432E-16 -4.01919426E+00  2.29350581E+00 -7.73118195E-16  4.01923206E+00
  2.29374769E+00  2.11346237E-16  4.93449634E+00 -1.94892369E+00  8.43019239E-16
  2.21993121E+00 -5.44275897E+00  9.38428422E-16 -2.21940964E+00 -5.44297251E+00
  3.94753045E-16 -4.93431682E+00 -1.94928085E+00 -3.65604924E-16 -3.89283583E-04
  4.81429275E+00 -5.89628529E-16 -1.62438213E+00  5.81452290E+00 -9.11017453E-16
  1.62339569E+00  5.81483471E+00 -5.13288983E-16
Force Field                                I                0
Int Atom Types                             I   N=          16
           0           0           0           0           0           0
           0           0           0           0           0           0
           0           0           0           0
MM charges                                 R   N=          16
  0.00000000E+00  0.00000000E+00  0.00000000E+00  0.00000000E+00  0.00000000E+00
  0.00000000E+00  0.00000000E+00  0.00000000E+00  0.00000000E+00  0.00000000E+00
  0.00000000E+00  0.00000000E+00  0.00000000E+00  0.00000000E+00  0.00000000E+00
  0.00000000E+00
Integer atomic weights                     I   N=          16
          12          12          12          12          12          12
          12           1           1           1           1           1
           1          14           1           1
Real atomic weights                        R   N=          16
  1.20000000E+01  1.20000000E+01  1.20000000E+01  1.20000000E+01  1.20000000E+01
  1.20000000E+01  1.20000000E+01  1.00782504E+00  1.00782504E+00  1.00782504E+00
  1.00782504E+00  1.00782504E+00  1.00782504E+00  1.40030740E+01  1.00782504E+00
  1.00782504E+00
Atom fragment info                         I   N=          16
           0           0           0           0           0           0
           0           0           0           0           0           0
           0           0           0           0
Atom residue num                           I   N=          16
           0           0           0           0           0           0
           0           0           0           0           0           0
           0           0           0           0
Nuclear spins                              I   N=          16
           0           0           0           0           0           0
           0           1           1           1           1           1
           1           2           1           1
Nuclear ZEff                               R   N=          16
 -3.60000000E+00 -3.60000000E+00 -3.60000000E+00 -3.60000000E+00 -3.60000000E+00
 -3.60000000E+00 -3.60000000E+00 -1.00000000E+00 -1.00000000E+00 -1.00000000E+00
 -1.00000000E+00 -1.00000000E+00 -1.00000000E+00 -4.55000000E+00 -1.00000000E+00
 -1.00000000E+00
Nuclear QMom                               R   N=          16
  0.00000000E+00  0.00000000E+00  0.00000000E+00  0.00000000E+00  0.00000000E+00
  0.00000000E+00  0.00000000E+00  0.00000000E+00  0.00000000E+00  0.00000000E+00
  0.00000000E+00  0.00000000E+00  0.00000000E+00  2.04400000E+00  0.00000000E+00
  0.00000000E+00
Nuclear GFac                               R   N=          16
  0.00000000E+00  0.00000000E+00  0.00000000E+00  0.00000000E+00  0.00000000E+00
  0.00000000E+00  0.00000000E+00  2.79284600E+00  2.79284600E+00  2.79284600E+00
  2.79284600E+00  2.79284600E+00  2.79284600E+00  4.03761000E-01  2.79284600E+00
  2.79284600E+00
MicOpt                                     I   N=          16
          -1          -1          -1          -1          -1          -1
          -1          -1          -1          -1          -1          -1
          -1          -1          -1          -1
Number of contracted shells                I               88
Number of primitive shells                 I              160
Pure/Cartesian d shells                    I                0
Pure/Cartesian f shells                    I                0
Highest angular momentum                   I                2
Largest degree of contraction              I                6
Shell types                                I   N=          88
           0          -1          -1          -1          -1          -2
           0          -1          -1          -1          -1          -2
           0          -1          -1          -1          -1          -2
           0          -1          -1          -1          -1          -2
           0          -1          -1          -1          -1          -2
           0          -1          -1          -1          -1          -2
           0          -1          -1          -1          -1          -2
           0           0           0           0           1           0
           0           0           0           1           0           0
           0           0           1           0           0           0
           0           1           0           0           0           0
           1           0           0           0           0           1
           0          -1          -1          -1          -1          -2
           0           0           0           0           1           0
           0           0           0           1
Number of primitives per shell             I   N=          88
           6           3           1           1           1           1
           6           3           1           1           1           1
           6           3           1           1           1           1
           6           3           1           1           1           1
           6           3           1           1           1           1
           6           3           1           1           1           1
           6           3           1           1           1           1
           3           1           1           1           1           3
           1           1           1           1           3           1
           1           1           1           3           1           1
           1           1           3           1           1           1
           1           3           1           1           1           1
           6           3           1           1           1           1
           3           1           1           1           1           3
           1           1           1           1
Shell to atom map                          I   N=          88
           1           1           1           1           1           1
           2           2           2           2           2           2
           3           3           3           3           3           3
           4           4           4           4           4           4
           5           5           5           5           5           5
           6           6           6           6           6           6
           7           7           7           7           7           7
           8           8           8           8           8           9
           9           9           9           9          10          10
          10          10          10          11          11          11
          11          11          12          12          12          12
          12          13          13          13          13          13
          14          14          14          14          14          14
          15          15          15          15          15          16
          16          16          16          16
Primitive exponents                        R   N=         160
  4.56324000E+03  6.82024000E+02  1.54973000E+02  4.44553000E+01  1.30290000E+01
  1.82773000E+00  2.09642000E+01  4.80331000E+00  1.45933000E+00  4.83456000E-01
  1.45585000E-01  4.38000000E-02  6.26000000E-01  4.56324000E+03  6.82024000E+02
  1.54973000E+02  4.44553000E+01  1.30290000E+01  1.82773000E+00  2.09642000E+01
  4.80331000E+00  1.45933000E+00  4.83456000E-01  1.45585000E-01  4.38000000E-02
  6.26000000E-01  4.56324000E+03  6.82024000E+02  1.54973000E+02  4.44553000E+01
  1.30290000E+01  1.82773000E+00  2.09642000E+01  4.80331000E+00  1.45933000E+00
  4.83456000E-01  1.45585000E-01  4.38000000E-02  6.26000000E-01  4.56324000E+03
  6.82024000E+02  1.54973000E+02  4.44553000E+01  1.30290000E+01  1.82773000E+00
  2.09642000E+01  4.80331000E+00  1.45933000E+00  4.83456000E-01  1.45585000E-01
  4.38000000E-02  6.26000000E-01  4.56324000E+03  6.82024000E+02  1.54973000E+02
  4.44553000E+01  1.30290000E+01  1.82773000E+00  2.09642000E+01  4.80331000E+00
  1.45933000E+00  4.83456000E-01  1.45585000E-01  4.38000000E-02  6.26000000E-01
  4.56324000E+03  6.82024000E+02  1.54973000E+02  4.44553000E+01  1.30290000E+01
  1.82773000E+00  2.09642000E+01  4.80331000E+00  1.45933000E+00  4.83456000E-01
  1.45585000E-01  4.38000000E-02  6.26000000E-01  4.56324000E+03  6.82024000E+02
  1.54973000E+02  4.44553000E+01  1.30290000E+01  1.82773000E+00  2.09642000E+01
  4.80331000E+00  1.45933000E+00  4.83456000E-01  1.45585000E-01  4.38000000E-02
  6.26000000E-01  3.38650000E+01  5.09479000E+00  1.15879000E+00  3.25840000E-01
  1.02741000E-01  3.60000000E-02  7.50000000E-01  3.38650000E+01  5.09479000E+00
  1.15879000E+00  3.25840000E-01  1.02741000E-01  3.60000000E-02  7.50000000E-01
  3.38650000E+01  5.09479000E+00  1.15879000E+00  3.25840000E-01  1.02741000E-01
  3.60000000E-02  7.50000000E-01  3.38650000E+01  5.09479000E+00  1.15879000E+00
  3.25840000E-01  1.02741000E-01  3.60000000E-02  7.50000000E-01  3.38650000E+01
  5.09479000E+00  1.15879000E+00  3.25840000E-01  1.02741000E-01  3.60000000E-02
  7.50000000E-01  3.38650000E+01  5.09479000E+00  1.15879000E+00  3.25840000E-01
  1.02741000E-01  3.60000000E-02  7.50000000E-01  6.29348000E+03  9.49044000E+02
  2.18776000E+02  6.36916000E+01  1.88282000E+01  2.72023000E+00  3.06331000E+01
  7.02614000E+00  2.11205000E+00  6.84009000E-01  2.00878000E-01  6.39000000E-02
  9.13000000E-01  3.38650000E+01  5.09479000E+00  1.15879000E+00  3.25840000E-01
  1.02741000E-01  3.60000000E-02  7.50000000E-01  3.38650000E+01  5.09479000E+00
  1.15879000E+00  3.25840000E-01  1.02741000E-01  3.60000000E-02  7.50000000E-01
Contraction coefficients                   R   N=         160
  1.96665025E-03  1.52306019E-02  7.61269097E-02  2.60801033E-01  6.16462078E-01
  2.21006028E-01  1.14660081E-01  9.19999648E-01 -3.03068213E-03  1.00000000E+00
  1.00000000E+00  1.00000000E+00  1.00000000E+00  1.96665025E-03  1.52306019E-02
  7.61269097E-02  2.60801033E-01  6.16462078E-01  2.21006028E-01  1.14660081E-01
  9.19999648E-01 -3.03068213E-03  1.00000000E+00  1.00000000E+00  1.00000000E+00
  1.00000000E+00  1.96665025E-03  1.52306019E-02  7.61269097E-02  2.60801033E-01
  6.16462078E-01  2.21006028E-01  1.14660081E-01  9.19999648E-01 -3.03068213E-03
  1.00000000E+00  1.00000000E+00  1.00000000E+00  1.00000000E+00  1.96665025E-03
  1.52306019E-02  7.61269097E-02  2.60801033E-01  6.16462078E-01  2.21006028E-01
  1.14660081E-01  9.19999648E-01 -3.03068213E-03  1.00000000E+00  1.00000000E+00
  1.00000000E+00  1.00000000E+00  1.96665025E-03  1.52306019E-02  7.61269097E-02
  2.60801033E-01  6.16462078E-01  2.21006028E-01  1.14660081E-01  9.19999648E-01
 -3.03068213E-03  1.00000000E+00  1.00000000E+00  1.00000000E+00  1.00000000E+00
  1.96665025E-03  1.52306019E-02  7.61269097E-02  2.60801033E-01  6.16462078E-01
  2.21006028E-01  1.14660081E-01  9.19999648E-01 -3.03068213E-03  1.00000000E+00
  1.00000000E+00  1.00000000E+00  1.00000000E+00  1.96665025E-03  1.52306019E-02
  7.61269097E-02  2.60801033E-01  6.16462078E-01  2.21006028E-01  1.14660081E-01
  9.19999648E-01 -3.03068213E-03  1.00000000E+00  1.00000000E+00  1.00000000E+00
  1.00000000E+00  2.54938145E-02  1.90373109E-01  8.52161486E-01  1.00000000E+00
  1.00000000E+00  1.00000000E+00  1.00000000E+00  2.54938145E-02  1.90373109E-01
  8.52161486E-01  1.00000000E+00  1.00000000E+00  1.00000000E+00  1.00000000E+00
  2.54938145E-02  1.90373109E-01  8.52161486E-01  1.00000000E+00  1.00000000E+00
  1.00000000E+00  1.00000000E+00  2.54938145E-02  1.90373109E-01  8.52161486E-01
  1.00000000E+00  1.00000000E+00  1.00000000E+00  1.00000000E+00  2.54938145E-02
  1.90373109E-01  8.52161486E-01  1.00000000E+00  1.00000000E+00  1.00000000E+00
  1.00000000E+00  2.54938145E-02  1.90373109E-01  8.52161486E-01  1.00000000E+00
  1.00000000E+00  1.00000000E+00  1.00000000E+00  1.96978815E-03  1.49612859E-02
  7.35005308E-02  2.48936766E-01  6.02459433E-01  2.56201759E-01  1.11906080E-01
  9.21666655E-01 -2.56919183E-03  1.00000000E+00  1.00000000E+00  1.00000000E+00
  1.00000000E+00  2.54938145E-02  1.90373109E-01  8.52161486E-01  1.00000000E+00
  1.00000000E+00  1.00000000E+00  1.00000000E+00  2.54938145E-02  1.90373109E-01
  8.52161486E-01  1.00000000E+00  1.00000000E+00  1.00000000E+00  1.00000000E+00
P(S=P) Contraction coefficients            R   N=         160
  0.00000000E+00  0.00000000E+00  0.00000000E+00  0.00000000E+00  0.00000000E+00
  0.00000000E+00  4.02486927E-02  2.37593957E-01  8.15853851E-01  1.00000000E+00
  1.00000000E+00  1.00000000E+00  0.00000000E+00  0.00000000E+00  0.00000000E+00
  0.00000000E+00  0.00000000E+00  0.00000000E+00  0.00000000E+00  4.02486927E-02
  2.37593957E-01  8.15853851E-01  1.00000000E+00  1.00000000E+00  1.00000000E+00
  0.00000000E+00  0.00000000E+00  0.00000000E+00  0.00000000E+00  0.00000000E+00
  0.00000000E+00  0.00000000E+00  4.02486927E-02  2.37593957E-01  8.15853851E-01
  1.00000000E+00  1.00000000E+00  1.00000000E+00  0.00000000E+00  0.00000000E+00
  0.00000000E+00  0.00000000E+00  0.00000000E+00  0.00000000E+00  0.00000000E+00
  4.02486927E-02  2.37593957E-01  8.15853851E-01  1.00000000E+00  1.00000000E+00
  1.00000000E+00  0.00000000E+00  0.00000000E+00  0.00000000E+00  0.00000000E+00
  0.00000000E+00  0.00000000E+00  0.00000000E+00  4.02486927E-02  2.37593957E-01
  8.15853851E-01  1.00000000E+00  1.00000000E+00  1.00000000E+00  0.00000000E+00
  0.00000000E+00  0.00000000E+00  0.00000000E+00  0.00000000E+00  0.00000000E+00
  0.00000000E+00  4.02486927E-02  2.37593957E-01  8.15853851E-01  1.00000000E+00
  1.00000000E+00  1.00000000E+00  0.00000000E+00  0.00000000E+00  0.00000000E+00
  0.00000000E+00  0.00000000E+00  0.00000000E+00  0.00000000E+00  4.02486927E-02
  2.37593957E-01  8.15853851E-01  1.00000000E+00  1.00000000E+00  1.00000000E+00
  0.00000000E+00  0.00000000E+00  0.00000000E+00  0.00000000E+00  0.00000000E+00
  0.00000000E+00  0.00000000E+00  0.00000000E+00  0.00000000E+00  0.00000000E+00
  0.00000000E+00  0.00000000E+00  0.00000000E+00  0.00000000E+00  0.00000000E+00
  0.00000000E+00  0.00000000E+00  0.00000000E+00  0.00000000E+00  0.00000000E+00
  0.00000000E+00  0.00000000E+00  0.00000000E+00  0.00000000E+00  0.00000000E+00
  0.00000000E+00  0.00000000E+00  0.00000000E+00  0.00000000E+00  0.00000000E+00
  0.00000000E+00  0.00000000E+00  0.00000000E+00  0.00000000E+00  0.00000000E+00
  0.00000000E+00  0.00000000E+00  0.00000000E+00  0.00000000E+00  0.00000000E+00
  0.00000000E+00  0.00000000E+00  0.00000000E+00  0.00000000E+00  0.00000000E+00
  0.00000000E+00  0.00000000E+00  0.00000000E+00  0.00000000E+00  3.83119186E-02
  2.37403116E-01  8.17592398E-01  1.00000000E+00  1.00000000E+00  1.00000000E+00
  0.00000000E+00  0.00000000E+00  0.00000000E+00  0.00000000E+00  0.00000000E+00
  0.00000000E+00  0.00000000E+00  0.00000000E+00  0.00000000E+00  0.00000000E+00
  0.00000000E+00  0.00000000E+00  0.00000000E+00  0.00000000E+00  0.00000000E+00
Coordinates of each shell                  R   N=         264
  1.29644481E+00 -3.61275549E+00 -1.59799160E-32  1.29644481E+00 -3.61275549E+00
 -1.59799160E-32  1.29644481E+00 -3.61275549E+00 -1.59799160E-32  1.29644481E+00
 -3.61275549E+00 -1.59799160E-32  1.29644481E+00 -3.61275549E+00 -1.59799160E-32
  1.29644481E+00 -3.61275549E+00 -1.59799160E-32  2.93404932E+00 -1.49428555E+00
 -3.61649500E-32  2.93404932E+00 -1.49428555E+00 -3.61649500E-32  2.93404932E+00
 -1.49428555E+00 -3.61649500E-32  2.93404932E+00 -1.49428555E+00 -3.61649500E-32
  2.93404932E+00 -1.49428555E+00 -3.61649500E-32  2.93404932E+00 -1.49428555E+00
 -3.61649500E-32 -1.29610827E+00 -3.61287458E+00  1.59757678E-32 -1.29610827E+00
 -3.61287458E+00  1.59757678E-32 -1.29610827E+00 -3.61287458E+00  1.59757678E-32
 -1.29610827E+00 -3.61287458E+00  1.59757678E-32 -1.29610827E+00 -3.61287458E+00
  1.59757678E-32 -1.29610827E+00 -3.61287458E+00  1.59757678E-32 -2.93389992E+00
 -1.49452185E+00  3.61631086E-32 -2.93389992E+00 -1.49452185E+00  3.61631086E-32
 -2.93389992E+00 -1.49452185E+00  3.61631086E-32 -2.93389992E+00 -1.49452185E+00
  3.61631086E-32 -2.93389992E+00 -1.49452185E+00  3.61631086E-32 -2.93389992E+00
 -1.49452185E+00  3.61631086E-32 -2.39410158E+00  1.03926642E+00  2.95095803E-32
 -2.39410158E+00  1.03926642E+00  2.95095803E-32 -2.39410158E+00  1.03926642E+00
  2.95095803E-32 -2.39410158E+00  1.03926642E+00  2.95095803E-32 -2.39410158E+00
  1.03926642E+00  2.95095803E-32 -2.39410158E+00  1.03926642E+00  2.95095803E-32
 -3.41995343E-32  2.28017024E+00  0.00000000E+00 -3.41995343E-32  2.28017024E+00
  0.00000000E+00 -3.41995343E-32  2.28017024E+00  0.00000000E+00 -3.41995343E-32
  2.28017024E+00  0.00000000E+00 -3.41995343E-32  2.28017024E+00  0.00000000E+00
 -3.41995343E-32  2.28017024E+00  0.00000000E+00  2.39411106E+00  1.03954617E+00
 -2.95096972E-32  2.39411106E+00  1.03954617E+00 -2.95096972E-32  2.39411106E+00
  1.03954617E+00 -2.95096972E-32  2.39411106E+00  1.03954617E+00 -2.95096972E-32
  2.39411106E+00  1.03954617E+00 -2.95096972E-32  2.39411106E+00  1.03954617E+00
 -2.95096972E-32 -4.01919426E+00  2.29350598E+00  4.95403941E-32 -4.01919426E+00
  2.29350598E+00  4.95403941E-32 -4.01919426E+00  2.29350598E+00  4.95403941E-32
 -4.01919426E+00  2.29350598E+00  4.95403941E-32 -4.01919426E+00  2.29350598E+00
  4.95403941E-32  4.01923206E+00  2.29374798E+00 -4.95408600E-32  4.01923206E+00
  2.29374798E+00 -4.95408600E-32  4.01923206E+00  2.29374798E+00 -4.95408600E-32
  4.01923206E+00  2.29374798E+00 -4.95408600E-32  4.01923206E+00  2.29374798E+00
 -4.95408600E-32  4.93449640E+00 -1.94892339E+00 -6.08223641E-32  4.93449640E+00
 -1.94892339E+00 -6.08223641E-32  4.93449640E+00 -1.94892339E+00 -6.08223641E-32
  4.93449640E+00 -1.94892339E+00 -6.08223641E-32  4.93449640E+00 -1.94892339E+00
 -6.08223641E-32  2.21993132E+00 -5.44275871E+00 -2.73627661E-32  2.21993132E+00
 -5.44275871E+00 -2.73627661E-32  2.21993132E+00 -5.44275871E+00 -2.73627661E-32
  2.21993132E+00 -5.44275871E+00 -2.73627661E-32  2.21993132E+00 -5.44275871E+00
 -2.73627661E-32 -2.21940953E+00 -5.44297231E+00  2.73563346E-32 -2.21940953E+00
 -5.44297231E+00  2.73563346E-32 -2.21940953E+00 -5.44297231E+00  2.73563346E-32
 -2.21940953E+00 -5.44297231E+00  2.73563346E-32 -2.21940953E+00 -5.44297231E+00
  2.73563346E-32 -4.93431676E+00 -1.94928069E+00  6.08201497E-32 -4.93431676E+00
 -1.94928069E+00  6.08201497E-32 -4.93431676E+00 -1.94928069E+00  6.08201497E-32
 -4.93431676E+00 -1.94928069E+00  6.08201497E-32 -4.93431676E+00 -1.94928069E+00
  6.08201497E-32 -3.89320429E-04  4.81429298E+00  4.79874478E-36 -3.89320429E-04
  4.81429298E+00  4.79874478E-36 -3.89320429E-04  4.81429298E+00  4.79874478E-36
 -3.89320429E-04  4.81429298E+00  4.79874478E-36 -3.89320429E-04  4.81429298E+00
  4.79874478E-36 -3.89320429E-04  4.81429298E+00  4.79874478E-36 -1.62438218E+00
  5.81452311E+00  2.00220562E-32 -1.62438218E+00  5.81452311E+00  2.00220562E-32
 -1.62438218E+00  5.81452311E+00  2.00220562E-32 -1.62438218E+00  5.81452311E+00
  2.00220562E-32 -1.62438218E+00  5.81452311E+00  2.00220562E-32  1.62339564E+00
  5.81483497E+00 -2.00098961E-32  1.62339564E+00  5.81483497E+00 -2.00098961E-32
  1.62339564E+00  5.81483497E+00 -2.00098961E-32  1.62339564E+00  5.81483497E+00
 -2.00098961E-32  1.62339564E+00  5.81483497E+00 -2.00098961E-32
Constraint Structure                       R   N=          48
  1.29644481E+00 -3.61275549E+00 -1.59799160E-32  2.93404932E+00 -1.49428555E+00
 -3.61649500E-32 -1.29610827E+00 -3.61287458E+00  1.59757678E-32 -2.93389992E+00
 -1.49452185E+00  3.61631086E-32 -2.39410158E+00  1.03926642E+00  2.95095803E-32
 -3.41995343E-32  2.28017024E+00  0.00000000E+00  2.39411106E+00  1.03954617E+00
 -2.95096972E-32 -4.01919426E+00  2.29350598E+00  4.95403941E-32  4.01923206E+00
  2.29374798E+00 -4.95408600E-32  4.93449640E+00 -1.94892339E+00 -6.08223641E-32
  2.21993132E+00 -5.44275871E+00 -2.73627661E-32 -2.21940953E+00 -5.44297231E+00
  2.73563346E-32 -4.93431676E+00 -1.94928069E+00  6.08201497E-32 -3.89320429E-04
  4.81429298E+00  4.79874478E-36 -1.62438218E+00  5.81452311E+00  2.00220562E-32
  1.62339564E+00  5.81483497E+00 -2.00098961E-32
Num ILSW                                   I              100
ILSW                                       I   N=         100
           0           0           0           0           2           0
           0           0           0           0           0          -1
           0           0           0           0           0           0
           0           0           0           0           0           0
           1           0           0           0           0           0
           0           0      100000           0          -1           0
           0           0           0           0           0           0
           0           0           0           1           0           0
           0           0           1           0           0           0
           0           0           4          40           0           0
           0           0           0           0           0           0
           0           0           0           0           0           0
           0           0           0           0           0           0
           0           0           0           0           0           0
           0           0           0           0           0           0
           0           0           0           0           0           0
           0           0           0           0
Num RLSW                                   I               40
RLSW                                       R   N=          40
  1.00000000E+00  1.00000000E+00  1.00000000E+00  1.00000000E+00  1.00000000E+00
  0.00000000E+00  0.00000000E+00  1.00000000E+00  0.00000000E+00  0.00000000E+00
  0.00000000E+00  0.00000000E+00  1.00000000E+00  0.00000000E+00  0.00000000E+00
  0.00000000E+00  0.00000000E+00  1.00000000E+00  0.00000000E+00  0.00000000E+00
  0.00000000E+00  0.00000000E+00  1.00000000E+00  0.00000000E+00  0.00000000E+00
  0.00000000E+00  0.00000000E+00  1.00000000E+00  0.00000000E+00  0.00000000E+00
  0.00000000E+00  0.00000000E+00  0.00000000E+00  0.00000000E+00  0.00000000E+00
  0.00000000E+00  0.00000000E+00  0.00000000E+00  1.00000000E+00  1.00000000E+00
MxBond                                     I                3
NBond                                      I   N=          16
           3           3           3           3           3           3
           3           1           1           1           1           1
           1           3           1           1
IBond                                      I   N=          48
           2           3          11           1           7          10
           1           4          12           3           5          13
           4           6           8           5           7          14
           2           6           9           5           0           0
           7           0           0           2           0           0
           1           0           0           3           0           0
           4           0           0           6          15          16
          14           0           0          14           0           0
RBond                                      R   N=          48
  1.50000000E+00  1.50000000E+00  1.00000000E+00  1.50000000E+00  1.50000000E+00
  1.00000000E+00  1.50000000E+00  1.50000000E+00  1.00000000E+00  1.50000000E+00
  1.50000000E+00  1.00000000E+00  1.50000000E+00  1.50000000E+00  1.00000000E+00
  1.50000000E+00  1.50000000E+00  1.50000000E+00  1.50000000E+00  1.50000000E+00
  1.00000000E+00  1.00000000E+00  0.00000000E+00  0.00000000E+00  1.00000000E+00
  0.00000000E+00  0.00000000E+00  1.00000000E+00  0.00000000E+00  0.00000000E+00
  1.00000000E+00  0.00000000E+00  0.00000000E+00  1.00000000E+00  0.00000000E+00
  0.00000000E+00  1.00000000E+00  0.00000000E+00  0.00000000E+00  1.50000000E+00
  1.00000000E+00  1.00000000E+00  1.00000000E+00  0.00000000E+00  0.00000000E+00
  1.00000000E+00  0.00000000E+00  0.00000000E+00
Virial Ratio                               R      2.001317593308810E+00
SCF Energy                                 R     -3.240238935194542E+02
MP2 Energy                                 R     -3.251487074603350E+02
Total Energy                               R     -3.251487074603350E+02
Post-SCF wavefunction norm                 R      1.185774614930040E+00
RMS Density                                R      9.737355908131032E-09
External E-field                           R   N=          35
  0.00000000E+00  0.00000000E+00  0.00000000E+00  0.00000000E+00  0.00000000E+00
  0.00000000E+00  0.00000000E+00  0.00000000E+00  0.00000000E+00  0.00000000E+00
  0.00000000E+00  0.00000000E+00  0.00000000E+00  0.00000000E+00  0.00000000E+00
  0.00000000E+00  0.00000000E+00  0.00000000E+00  0.00000000E+00  0.00000000E+00
  0.00000000E+00  0.00000000E+00  0.00000000E+00  0.00000000E+00  0.00000000E+00
  0.00000000E+00  0.00000000E+00  0.00000000E+00  0.00000000E+00  0.00000000E+00
  0.00000000E+00  0.00000000E+00  0.00000000E+00  0.00000000E+00  0.00000000E+00
IOpCl                                      I                0
IROHF                                      I                0
Alpha Orbital Energies                     R   N=         232
 -1.57745271E+01 -1.15211337E+01 -1.14507578E+01 -1.14507414E+01 -1.14385031E+01
 -1.14384904E+01 -1.14354587E+01 -1.14340817E+01 -1.44639557E+00 -1.32002188E+00
 -1.24999137E+00 -1.22039757E+00 -1.09224389E+00 -1.08264216E+00 -9.51250244E-01
 -9.35283770E-01 -9.01232059E-01 -8.49243644E-01 -8.36939477E-01 -8.07669628E-01
 -7.70337972E-01 -7.35698869E-01 -7.29302743E-01 -7.04037948E-01 -6.83164385E-01
 -6.39446145E-01 -5.63402782E-01 -5.01893833E-01 -1.34007325E-01 -1.20208915E-01
 -7.67612937E-02 -6.16523652E-02 -6.13298012E-02 -3.95777504E-02 -3.93645899E-02
 -1.71018299E-02 -1.23218435E-02 -8.68943436E-03 -7.40188995E-03  1.78416610E-02
  1.87071940E-02  2.32649569E-02  3.94794285E-02  4.89693637E-02  5.24651942E-02
  5.83347282E-02  5.99577751E-02  6.23825397E-02  6.88595020E-02  7.01213667E-02
  7.33590289E-02  7.35953205E-02  7.47750142E-02  7.73828710E-02  8.88178332E-02
  1.12229892E-01  1.17747559E-01  1.18513380E-01  1.21823128E-01  1.23519167E-01
  1.25045244E-01  1.53745668E-01  1.56806073E-01  1.65637551E-01  1.69729380E-01
  1.70603007E-01  1.73048608E-01  1.74884579E-01  1.89696908E-01  1.99575175E-01
  2.29668890E-01  2.29866983E-01  2.34863588E-01  2.35532939E-01  2.55691361E-01
  2.56797441E-01  2.72382851E-01  2.76011968E-01  2.96835874E-01  3.05615508E-01
  3.15535809E-01  3.37049405E-01  3.60444091E-01  4.03054725E-01  4.03893185E-01
  4.26953296E-01  4.66841377E-01  4.87979420E-01  5.15789326E-01  5.57668552E-01
  5.63496058E-01  5.65685557E-01  5.76529458E-01  5.79862882E-01  5.80875307E-01
  5.84130616E-01  6.18026331E-01  6.26802352E-01  6.32699980E-01  6.34374020E-01
  6.79783561E-01  6.99604830E-01  7.03230719E-01  7.17976869E-01  7.41707633E-01
  7.68932461E-01  7.71719781E-01  7.96088577E-01  8.11500913E-01  8.22019857E-01
  8.42080335E-01  8.42152705E-01  8.70762423E-01  8.84394242E-01  8.93278517E-01
  8.95256468E-01  9.05054252E-01  9.25717089E-01  9.31211282E-01  9.51866446E-01
  9.66014116E-01  9.90798008E-01  1.01306755E+00  1.03478365E+00  1.04623643E+00
  1.06667793E+00  1.08966792E+00  1.09064670E+00  1.11011515E+00  1.12196317E+00
  1.16425703E+00  1.20588465E+00  1.23940414E+00  1.25715348E+00  1.30225199E+00
  1.37238732E+00  1.51017841E+00  1.52420719E+00  1.54200573E+00  1.55869013E+00