X=H                                                                     
SP        RMP2-FC                                                     6-311++G(d,p)       
Number of atoms                            I               12
Info1-9                                    I   N=           9
          22          21           0           0           0         110
           1           2           1
Charge                                     I                0
Multiplicity                               I                1
Number of electrons                        I               50
Number of alpha electrons                  I               25
Number of beta electrons                   I               25
Number of basis functions                  I              189
Number of independent functions            I              189
Number of point charges in /Mol/           I                0
Number of translation vectors              I                0
Atomic numbers                             I   N=          12
           6           6           6           6           6           6
           9           1           1           1           1           1
Nuclear charges                            R   N=          12
  6.00000000E+00  6.00000000E+00  6.00000000E+00  6.00000000E+00  6.00000000E+00
  6.00000000E+00  9.00000000E+00  1.00000000E+00  1.00000000E+00  1.00000000E+00
  1.00000000E+00  1.00000000E+00
Current cartesian coordinates              R   N=          36
 -2.46519033E-32  2.29754037E+00  4.91290735E-01  0.00000000E+00  2.28044591E+00
 -2.14353740E+00  2.46519033E-32  1.01189807E-32 -3.46415739E+00 -2.79274078E-16
 -2.28044591E+00 -2.14353740E+00 -2.81367546E-16 -2.29754037E+00  4.91290735E-01
 -1.23259516E-32 -5.11045249E-33  1.74952520E+00 -4.93038066E-32 -1.26016760E-32
  4.31408954E+00  4.93038066E-32  1.60993011E-32 -5.51147535E+00 -3.69778549E-32
  4.04180106E+00  1.56101935E+00 -4.94977872E-16 -4.04180106E+00  1.56101935E+00
  0.00000000E+00  4.05778814E+00 -3.16130799E+00 -4.96935726E-16 -4.05778814E+00
 -3.16130799E+00
Force Field                                I                0
Int Atom Types                             I   N=          12
           0           0           0           0           0           0
           0           0           0           0           0           0
MM charges                                 R   N=          12
  0.00000000E+00  0.00000000E+00  0.00000000E+00  0.00000000E+00  0.00000000E+00
  0.00000000E+00  0.00000000E+00  0.00000000E+00  0.00000000E+00  0.00000000E+00
  0.00000000E+00  0.00000000E+00
Integer atomic weights                     I   N=          12
          12          12          12          12          12          12
          19           1           1           1           1           1
Real atomic weights                        R   N=          12
  1.20000000E+01  1.20000000E+01  1.20000000E+01  1.20000000E+01  1.20000000E+01
  1.20000000E+01  1.89984032E+01  1.00782504E+00  1.00782504E+00  1.00782504E+00
  1.00782504E+00  1.00782504E+00
Atom fragment info                         I   N=          12
           0           0           0           0           0           0
           0           0           0           0           0           0
Atom residue num                           I   N=          12
           0           0           0           0           0           0
           0           0           0           0           0           0
Nuclear spins                              I   N=          12
           0           0           0           0           0           0
           1           1           1           1           1           1
Nuclear ZEff                               R   N=          12
 -3.60000000E+00 -3.60000000E+00 -3.60000000E+00 -3.60000000E+00 -3.60000000E+00
 -3.60000000E+00 -6.75000000E+00 -1.00000000E+00 -1.00000000E+00 -1.00000000E+00
 -1.00000000E+00 -1.00000000E+00
Nuclear QMom                               R   N=          12
  0.00000000E+00  0.00000000E+00  0.00000000E+00  0.00000000E+00  0.00000000E+00
  0.00000000E+00  0.00000000E+00  0.00000000E+00  0.00000000E+00  0.00000000E+00
  0.00000000E+00  0.00000000E+00
Nuclear GFac                               R   N=          12
  0.00000000E+00  0.00000000E+00  0.00000000E+00  0.00000000E+00  0.00000000E+00
  0.00000000E+00  2.62886700E+00  2.79284600E+00  2.79284600E+00  2.79284600E+00
  2.79284600E+00  2.79284600E+00
MicOpt                                     I   N=          12
          -1          -1          -1          -1          -1          -1
          -1          -1          -1          -1          -1          -1
Number of contracted shells                I               67
Number of primitive shells                 I              126
Pure/Cartesian d shells                    I                0
Pure/Cartesian f shells                    I                0
Highest angular momentum                   I                2
Largest degree of contraction              I                6
Shell types                                I   N=          67
           0          -1          -1          -1          -1          -2
           0          -1          -1          -1          -1          -2
           0          -1          -1          -1          -1          -2
           0          -1          -1          -1          -1          -2
           0          -1          -1          -1          -1          -2
           0          -1          -1          -1          -1          -2
           0          -1          -1          -1          -1          -2
           0           0           0           0           1           0
           0           0           0           1           0           0
           0           0           1           0           0           0
           0           1           0           0           0           0
           1
Number of primitives per shell             I   N=          67
           6           3           1           1           1           1
           6           3           1           1           1           1
           6           3           1           1           1           1
           6           3           1           1           1           1
           6           3           1           1           1           1
           6           3           1           1           1           1
           6           3           1           1           1           1
           3           1           1           1           1           3
           1           1           1           1           3           1
           1           1           1           3           1           1
           1           1           3           1           1           1
           1
Shell to atom map                          I   N=          67
           1           1           1           1           1           1
           2           2           2           2           2           2
           3           3           3           3           3           3
           4           4           4           4           4           4
           5           5           5           5           5           5
           6           6           6           6           6           6
           7           7           7           7           7           7
           8           8           8           8           8           9
           9           9           9           9          10          10
          10          10          10          11          11          11
          11          11          12          12          12          12
          12
Primitive exponents                        R   N=         126
  4.56324000E+03  6.82024000E+02  1.54973000E+02  4.44553000E+01  1.30290000E+01
  1.82773000E+00  2.09642000E+01  4.80331000E+00  1.45933000E+00  4.83456000E-01
  1.45585000E-01  4.38000000E-02  6.26000000E-01  4.56324000E+03  6.82024000E+02
  1.54973000E+02  4.44553000E+01  1.30290000E+01  1.82773000E+00  2.09642000E+01
  4.80331000E+00  1.45933000E+00  4.83456000E-01  1.45585000E-01  4.38000000E-02
  6.26000000E-01  4.56324000E+03  6.82024000E+02  1.54973000E+02  4.44553000E+01
  1.30290000E+01  1.82773000E+00  2.09642000E+01  4.80331000E+00  1.45933000E+00
  4.83456000E-01  1.45585000E-01  4.38000000E-02  6.26000000E-01  4.56324000E+03
  6.82024000E+02  1.54973000E+02  4.44553000E+01  1.30290000E+01  1.82773000E+00
  2.09642000E+01  4.80331000E+00  1.45933000E+00  4.83456000E-01  1.45585000E-01
  4.38000000E-02  6.26000000E-01  4.56324000E+03  6.82024000E+02  1.54973000E+02
  4.44553000E+01  1.30290000E+01  1.82773000E+00  2.09642000E+01  4.80331000E+00
  1.45933000E+00  4.83456000E-01  1.45585000E-01  4.38000000E-02  6.26000000E-01
  4.56324000E+03  6.82024000E+02  1.54973000E+02  4.44553000E+01  1.30290000E+01
  1.82773000E+00  2.09642000E+01  4.80331000E+00  1.45933000E+00  4.83456000E-01
  1.45585000E-01  4.38000000E-02  6.26000000E-01  1.14271000E+04  1.72235000E+03
  3.95746000E+02  1.15139000E+02  3.36026000E+01  4.91901000E+00  5.54441000E+01
  1.26323000E+01  3.71756000E+00  1.16545000E+00  3.21892000E-01  1.07600000E-01
  1.75000000E+00  3.38650000E+01  5.09479000E+00  1.15879000E+00  3.25840000E-01
  1.02741000E-01  3.60000000E-02  7.50000000E-01  3.38650000E+01  5.09479000E+00
  1.15879000E+00  3.25840000E-01  1.02741000E-01  3.60000000E-02  7.50000000E-01
  3.38650000E+01  5.09479000E+00  1.15879000E+00  3.25840000E-01  1.02741000E-01
  3.60000000E-02  7.50000000E-01  3.38650000E+01  5.09479000E+00  1.15879000E+00
  3.25840000E-01  1.02741000E-01  3.60000000E-02  7.50000000E-01  3.38650000E+01
  5.09479000E+00  1.15879000E+00  3.25840000E-01  1.02741000E-01  3.60000000E-02
  7.50000000E-01
Contraction coefficients                   R   N=         126
  1.96665025E-03  1.52306019E-02  7.61269097E-02  2.60801033E-01  6.16462078E-01
  2.21006028E-01  1.14660081E-01  9.19999648E-01 -3.03068213E-03  1.00000000E+00
  1.00000000E+00  1.00000000E+00  1.00000000E+00  1.96665025E-03  1.52306019E-02
  7.61269097E-02  2.60801033E-01  6.16462078E-01  2.21006028E-01  1.14660081E-01
  9.19999648E-01 -3.03068213E-03  1.00000000E+00  1.00000000E+00  1.00000000E+00
  1.00000000E+00  1.96665025E-03  1.52306019E-02  7.61269097E-02  2.60801033E-01
  6.16462078E-01  2.21006028E-01  1.14660081E-01  9.19999648E-01 -3.03068213E-03
  1.00000000E+00  1.00000000E+00  1.00000000E+00  1.00000000E+00  1.96665025E-03
  1.52306019E-02  7.61269097E-02  2.60801033E-01  6.16462078E-01  2.21006028E-01
  1.14660081E-01  9.19999648E-01 -3.03068213E-03  1.00000000E+00  1.00000000E+00
  1.00000000E+00  1.00000000E+00  1.96665025E-03  1.52306019E-02  7.61269097E-02
  2.60801033E-01  6.16462078E-01  2.21006028E-01  1.14660081E-01  9.19999648E-01
 -3.03068213E-03  1.00000000E+00  1.00000000E+00  1.00000000E+00  1.00000000E+00
  1.96665025E-03  1.52306019E-02  7.61269097E-02  2.60801033E-01  6.16462078E-01
  2.21006028E-01  1.14660081E-01  9.19999648E-01 -3.03068213E-03  1.00000000E+00
  1.00000000E+00  1.00000000E+00  1.00000000E+00  1.80093016E-03  1.37419012E-02
  6.81334059E-02  2.33325020E-01  5.89086051E-01  2.99505026E-01  1.14536016E-01
  9.20512125E-01 -3.37804046E-03  1.00000000E+00  1.00000000E+00  1.00000000E+00
  1.00000000E+00  2.54938145E-02  1.90373109E-01  8.52161486E-01  1.00000000E+00
  1.00000000E+00  1.00000000E+00  1.00000000E+00  2.54938145E-02  1.90373109E-01
  8.52161486E-01  1.00000000E+00  1.00000000E+00  1.00000000E+00  1.00000000E+00
  2.54938145E-02  1.90373109E-01  8.52161486E-01  1.00000000E+00  1.00000000E+00
  1.00000000E+00  1.00000000E+00  2.54938145E-02  1.90373109E-01  8.52161486E-01
  1.00000000E+00  1.00000000E+00  1.00000000E+00  1.00000000E+00  2.54938145E-02
  1.90373109E-01  8.52161486E-01  1.00000000E+00  1.00000000E+00  1.00000000E+00
  1.00000000E+00
P(S=P) Contraction coefficients            R   N=         126
  0.00000000E+00  0.00000000E+00  0.00000000E+00  0.00000000E+00  0.00000000E+00
  0.00000000E+00  4.02486927E-02  2.37593957E-01  8.15853851E-01  1.00000000E+00
  1.00000000E+00  1.00000000E+00  0.00000000E+00  0.00000000E+00  0.00000000E+00
  0.00000000E+00  0.00000000E+00  0.00000000E+00  0.00000000E+00  4.02486927E-02
  2.37593957E-01  8.15853851E-01  1.00000000E+00  1.00000000E+00  1.00000000E+00
  0.00000000E+00  0.00000000E+00  0.00000000E+00  0.00000000E+00  0.00000000E+00
  0.00000000E+00  0.00000000E+00  4.02486927E-02  2.37593957E-01  8.15853851E-01
  1.00000000E+00  1.00000000E+00  1.00000000E+00  0.00000000E+00  0.00000000E+00
  0.00000000E+00  0.00000000E+00  0.00000000E+00  0.00000000E+00  0.00000000E+00
  4.02486927E-02  2.37593957E-01  8.15853851E-01  1.00000000E+00  1.00000000E+00
  1.00000000E+00  0.00000000E+00  0.00000000E+00  0.00000000E+00  0.00000000E+00
  0.00000000E+00  0.00000000E+00  0.00000000E+00  4.02486927E-02  2.37593957E-01
  8.15853851E-01  1.00000000E+00  1.00000000E+00  1.00000000E+00  0.00000000E+00
  0.00000000E+00  0.00000000E+00  0.00000000E+00  0.00000000E+00  0.00000000E+00
  0.00000000E+00  4.02486927E-02  2.37593957E-01  8.15853851E-01  1.00000000E+00
  1.00000000E+00  1.00000000E+00  0.00000000E+00  0.00000000E+00  0.00000000E+00
  0.00000000E+00  0.00000000E+00  0.00000000E+00  0.00000000E+00  3.54608874E-02
  2.37450915E-01  8.20457708E-01  1.00000000E+00  1.00000000E+00  1.00000000E+00
  0.00000000E+00  0.00000000E+00  0.00000000E+00  0.00000000E+00  0.00000000E+00
  0.00000000E+00  0.00000000E+00  0.00000000E+00  0.00000000E+00  0.00000000E+00
  0.00000000E+00  0.00000000E+00  0.00000000E+00  0.00000000E+00  0.00000000E+00
  0.00000000E+00  0.00000000E+00  0.00000000E+00  0.00000000E+00  0.00000000E+00
  0.00000000E+00  0.00000000E+00  0.00000000E+00  0.00000000E+00  0.00000000E+00
  0.00000000E+00  0.00000000E+00  0.00000000E+00  0.00000000E+00  0.00000000E+00
  0.00000000E+00  0.00000000E+00  0.00000000E+00  0.00000000E+00  0.00000000E+00
  0.00000000E+00
Coordinates of each shell                  R   N=         201
 -1.41596858E-32  2.29754037E+00  4.91290735E-01 -1.41596858E-32  2.29754037E+00
  4.91290735E-01 -1.41596858E-32  2.29754037E+00  4.91290735E-01 -1.41596858E-32
  2.29754037E+00  4.91290735E-01 -1.41596858E-32  2.29754037E+00  4.91290735E-01
 -1.41596858E-32  2.29754037E+00  4.91290735E-01 -1.40543330E-32  2.28044591E+00
 -2.14353740E+00 -1.40543330E-32  2.28044591E+00 -2.14353740E+00 -1.40543330E-32
  2.28044591E+00 -2.14353740E+00 -1.40543330E-32  2.28044591E+00 -2.14353740E+00
 -1.40543330E-32  2.28044591E+00 -2.14353740E+00 -1.40543330E-32  2.28044591E+00
 -2.14353740E+00  2.13495183E-32  1.36845553E-48 -3.46415739E+00  2.13495183E-32
  1.36845553E-48 -3.46415739E+00  2.13495183E-32  1.36845553E-48 -3.46415739E+00
  2.13495183E-32  1.36845553E-48 -3.46415739E+00  2.13495183E-32  1.36845553E-48
 -3.46415739E+00  2.13495183E-32  1.36845553E-48 -3.46415739E+00 -2.79274078E-16
 -2.28044591E+00 -2.14353740E+00 -2.79274078E-16 -2.28044591E+00 -2.14353740E+00
 -2.79274078E-16 -2.28044591E+00 -2.14353740E+00 -2.79274078E-16 -2.28044591E+00
 -2.14353740E+00 -2.79274078E-16 -2.28044591E+00 -2.14353740E+00 -2.79274078E-16
 -2.28044591E+00 -2.14353740E+00 -2.81367546E-16 -2.29754037E+00  4.91290735E-01
 -2.81367546E-16 -2.29754037E+00  4.91290735E-01 -2.81367546E-16 -2.29754037E+00
  4.91290735E-01 -2.81367546E-16 -2.29754037E+00  4.91290735E-01 -2.81367546E-16
 -2.29754037E+00  4.91290735E-01 -2.81367546E-16 -2.29754037E+00  4.91290735E-01
 -1.07822815E-32  0.00000000E+00  1.74952520E+00 -1.07822815E-32  0.00000000E+00
  1.74952520E+00 -1.07822815E-32  0.00000000E+00  1.74952520E+00 -1.07822815E-32
  0.00000000E+00  1.74952520E+00 -1.07822815E-32  0.00000000E+00  1.74952520E+00
 -1.07822815E-32  0.00000000E+00  1.74952520E+00 -2.65876295E-32  0.00000000E+00
  4.31408954E+00 -2.65876295E-32  0.00000000E+00  4.31408954E+00 -2.65876295E-32
  0.00000000E+00  4.31408954E+00 -2.65876295E-32  0.00000000E+00  4.31408954E+00
 -2.65876295E-32  0.00000000E+00  4.31408954E+00 -2.65876295E-32  0.00000000E+00
  4.31408954E+00  3.39670893E-32  0.00000000E+00 -5.51147535E+00  3.39670893E-32
  0.00000000E+00 -5.51147535E+00  3.39670893E-32  0.00000000E+00 -5.51147535E+00
  3.39670893E-32  0.00000000E+00 -5.51147535E+00  3.39670893E-32  0.00000000E+00
 -5.51147535E+00 -2.49095222E-32  4.04180106E+00  1.56101935E+00 -2.49095222E-32
  4.04180106E+00  1.56101935E+00 -2.49095222E-32  4.04180106E+00  1.56101935E+00
 -2.49095222E-32  4.04180106E+00  1.56101935E+00 -2.49095222E-32  4.04180106E+00
  1.56101935E+00 -4.94977872E-16 -4.04180106E+00  1.56101935E+00 -4.94977872E-16
 -4.04180106E+00  1.56101935E+00 -4.94977872E-16 -4.04180106E+00  1.56101935E+00
 -4.94977872E-16 -4.04180106E+00  1.56101935E+00 -4.94977872E-16 -4.04180106E+00
  1.56101935E+00 -2.50080502E-32  4.05778814E+00 -3.16130799E+00 -2.50080502E-32
  4.05778814E+00 -3.16130799E+00 -2.50080502E-32  4.05778814E+00 -3.16130799E+00
 -2.50080502E-32  4.05778814E+00 -3.16130799E+00 -2.50080502E-32  4.05778814E+00
 -3.16130799E+00 -4.96935726E-16 -4.05778814E+00 -3.16130799E+00 -4.96935726E-16
 -4.05778814E+00 -3.16130799E+00 -4.96935726E-16 -4.05778814E+00 -3.16130799E+00
 -4.96935726E-16 -4.05778814E+00 -3.16130799E+00 -4.96935726E-16 -4.05778814E+00
 -3.16130799E+00
Constraint Structure                       R   N=          36
 -1.41596858E-32  2.29754037E+00  4.91290735E-01 -1.40543330E-32  2.28044591E+00
 -2.14353740E+00  2.13495183E-32  1.36845553E-48 -3.46415739E+00 -2.79274078E-16
 -2.28044591E+00 -2.14353740E+00 -2.81367546E-16 -2.29754037E+00  4.91290735E-01
 -1.07822815E-32  0.00000000E+00  1.74952520E+00 -2.65876295E-32  0.00000000E+00
  4.31408954E+00  3.39670893E-32  0.00000000E+00 -5.51147535E+00 -2.49095222E-32
  4.04180106E+00  1.56101935E+00 -4.94977872E-16 -4.04180106E+00  1.56101935E+00
 -2.50080502E-32  4.05778814E+00 -3.16130799E+00 -4.96935726E-16 -4.05778814E+00
 -3.16130799E+00
Num ILSW                                   I              100
ILSW                                       I   N=         100
           0           0           0           0           2           0
           0           0           0           0           0          -1
           0           0           0           0           0           0
           0           0           0           0           0           0
           1           0           0           0           0           0
           0           0      100000           0          -1           0
           0           0           0           0           0           0
           0           0           0           1           0           0
           0           0           1           0           0           0
           0           0           4          40           0           0
           0           0           0           0           0           0
           0           0           0           0           0           0
           0           0           0           0           0           0
           0           0           0           0           0           0
           0           0           0           0           0           0
           0           0           0           0           0           0
           0           0           0           0
Num RLSW                                   I               40
RLSW                                       R   N=          40
  1.00000000E+00  1.00000000E+00  1.00000000E+00  1.00000000E+00  1.00000000E+00
  0.00000000E+00  0.00000000E+00  1.00000000E+00  0.00000000E+00  0.00000000E+00
  0.00000000E+00  0.00000000E+00  1.00000000E+00  0.00000000E+00  0.00000000E+00
  0.00000000E+00  0.00000000E+00  1.00000000E+00  0.00000000E+00  0.00000000E+00
  0.00000000E+00  0.00000000E+00  1.00000000E+00  0.00000000E+00  0.00000000E+00
  0.00000000E+00  0.00000000E+00  1.00000000E+00  0.00000000E+00  0.00000000E+00
  0.00000000E+00  0.00000000E+00  0.00000000E+00  0.00000000E+00  0.00000000E+00
  0.00000000E+00  0.00000000E+00  0.00000000E+00  1.00000000E+00  1.00000000E+00
MxBond                                     I                3
NBond                                      I   N=          12
           3           3           3           3           3           3
           1           1           1           1           1           1
IBond                                      I   N=          36
           2           6           9           1           3          11
           2           4           8           3           5          12
           4           6          10           1           5           7
           6           0           0           3           0           0
           1           0           0           5           0           0
           2           0           0           4           0           0
RBond                                      R   N=          36
  1.50000000E+00  1.50000000E+00  1.00000000E+00  1.50000000E+00  1.50000000E+00
  1.00000000E+00  1.50000000E+00  1.50000000E+00  1.00000000E+00  1.50000000E+00
  1.50000000E+00  1.00000000E+00  1.50000000E+00  1.50000000E+00  1.00000000E+00
  1.50000000E+00  1.50000000E+00  1.00000000E+00  1.00000000E+00  0.00000000E+00
  0.00000000E+00  1.00000000E+00  0.00000000E+00  0.00000000E+00  1.00000000E+00
  0.00000000E+00  0.00000000E+00  1.00000000E+00  0.00000000E+00  0.00000000E+00
  1.00000000E+00  0.00000000E+00  0.00000000E+00  1.00000000E+00  0.00000000E+00
  0.00000000E+00
Virial Ratio                               R      2.001127546797161E+00
SCF Energy                                 R     -3.296364374122783E+02
MP2 Energy                                 R     -3.306622671366955E+02
Total Energy                               R     -3.306622671366955E+02
Post-SCF wavefunction norm                 R      1.157882551327867E+00
RMS Density                                R      5.979517310566502E-09
External E-field                           R   N=          35
  0.00000000E+00  0.00000000E+00  0.00000000E+00  0.00000000E+00  0.00000000E+00
  0.00000000E+00  0.00000000E+00  0.00000000E+00  0.00000000E+00  0.00000000E+00
  0.00000000E+00  0.00000000E+00  0.00000000E+00  0.00000000E+00  0.00000000E+00
  0.00000000E+00  0.00000000E+00  0.00000000E+00  0.00000000E+00  0.00000000E+00
  0.00000000E+00  0.00000000E+00  0.00000000E+00  0.00000000E+00  0.00000000E+00
  0.00000000E+00  0.00000000E+00  0.00000000E+00  0.00000000E+00  0.00000000E+00
  0.00000000E+00  0.00000000E+00  0.00000000E+00  0.00000000E+00  0.00000000E+00
IOpCl                                      I                0
IROHF                                      I                0
Alpha Orbital Energies                     R   N=         189
 -2.63079375E+01 -1.13343537E+01 -1.12556694E+01 -1.12556085E+01 -1.12499207E+01
 -1.12499039E+01 -1.12460605E+01 -1.62284799E+00 -1.16943893E+00 -1.03716004E+00
 -1.02706897E+00 -8.59001128E-01 -8.43991708E-01 -7.46446605E-01 -7.00567861E-01
 -6.90197800E-01 -6.90173128E-01 -6.27623272E-01 -6.10322923E-01 -5.98231662E-01
 -5.35129897E-01 -5.12050217E-01 -5.12006119E-01 -3.54388685E-01 -3.44018036E-01
  3.92136038E-02  4.63736646E-02  5.23406350E-02  6.66382584E-02  7.19895677E-02
  9.71324400E-02  1.08374523E-01  1.21139861E-01  1.25775931E-01  1.47182165E-01
  1.51755145E-01  1.52640890E-01  1.59915554E-01  1.77787931E-01  1.78187280E-01
  1.88517201E-01  1.89052251E-01  1.93105122E-01  2.04794423E-01  2.07785560E-01
  2.08489161E-01  2.08899305E-01  2.08952707E-01  2.21555852E-01  2.27000382E-01
  2.46298864E-01  2.48174114E-01  2.76002905E-01  2.84117684E-01  2.99931673E-01
  3.04768308E-01  3.27291817E-01  3.58084257E-01  3.77578808E-01  3.99361782E-01
  4.18815924E-01  4.23384862E-01  4.25277116E-01  4.28303672E-01  4.61641271E-01
  4.75804010E-01  4.77677584E-01  5.13909460E-01  5.39710321E-01  5.39999169E-01
  5.74666556E-01  6.41673560E-01  6.57691158E-01  6.98574559E-01  7.06393924E-01
  7.11815357E-01  7.32068698E-01  7.45171319E-01  7.48607922E-01  7.48750013E-01
  7.82257297E-01  7.96445010E-01  8.06660534E-01  8.09068165E-01  8.75181028E-01
  8.96369792E-01  9.30987559E-01  9.40443949E-01  9.52626388E-01  9.84363309E-01
  9.89468075E-01  1.03159234E+00  1.03298333E+00  1.06008472E+00  1.06676340E+00
  1.09457592E+00  1.11018080E+00  1.12526167E+00  1.14292089E+00  1.19623752E+00
  1.21248661E+00  1.21714222E+00  1.22792776E+00  1.30625920E+00  1.33802915E+00
  1.37155071E+00  1.43961479E+00  1.48741075E+00  1.59071480E+00  1.68838588E+00
  1.69430446E+00  1.69858468E+00  1.76756095E+00  1.78226095E+00  1.80592449E+00
  1.81986536E+00  1.82738034E+00  1.83992153E+00  1.87505412E+00  1.89664339E+00
  1.90582647E+00  1.92868843E+00  2.00298956E+00  2.01064536E+00  2.03931070E+00
  2.09557049E+00  2.15596017E+00  2.21296246E+00  2.21409255E+00  2.21730332E+00
  2.23087621E+00  2.24574946E+00  2.27461055E+00  2.31919329E+00  2.33916613E+00
  2.36345839E+00  2.36600637E+00  2.39292954E+00  2.58228819E+00  2.61246690E+00
  2.64170556E+00  2.73011978E+00  2.76867555E+00  2.78051924E+00  2.83541779E+00
  2.93974568E+00  2.96311476E+00  2.99539512E+00  3.00424121E+00  3.02471834E+00
  3.02917653E+00  3.03672184E+00  3.06373607E+00  3.14806644E+00  3.17665198E+00
  3.17823849E+00  3.20180874E+00  3.26582631E+00  3.27830175E+00  3.30691290E+00
  3.46550963E+00  3.54904581E+00  3.58086578E+00  3.75788363E+00  3.77081856E+00
  3.89181880E+00  3.90251027E+00  4.02129029E+00  4.12512660E+00  4.22785634E+00
  4.28829391E+00  4.39345671E+00  4.43649738E+00  4.45087840E+00  4.54879081E+00
  4.56481496E+00  4.58428352E+00  5.26247068E+00  5.34744538E+00  6.96071134E+00
  7.08930024E+00  7.38920608E+00  2.47115359E+01  2.50713728E+01  2.51281599E+01
  2.52338658E+01  2.52488901E+01  2.53494182E+01  6.87974786E+01
Alpha MO coefficients                      R   N=       35721
  8.31916293E-07  1.05035624E-06  0.00000000E+00  8.61161700E-06 -5.39397322E-06
 -1.90202900E-05  0.00000000E+00 -5.24973035E-05  2.25061198E-05  8.33936177E-04
  0.00000000E+00 -4.98476015E-04 -5.16546116E-04  1.13209127E-02  0.00000000E+00
 -2.72326150E-03 -9.36111042E-04 -2.71553220E-06  0.00000000E+00 -2.63388476E-05
 -6.52426598E-06  0.00000000E+00  3.97466057E-07 -2.41492185E-06  0.00000000E+00
 -1.11862727E-06  1.28327049E-06  3.06986781E-05  0.00000000E+00  7.61760304E-06
 -6.99768316E-07 -8.84826942E-04  0.00000000E+00  3.87532051E-04 -3.50913679E-04
 -1.06959945E-02  0.00000000E+00  2.53276057E-03 -1.13600825E-03 -1.25898688E-06
  0.00000000E+00 -6.88061243E-06  4.46950441E-06  0.00000000E+00 -2.35095086E-07
  9.86827229E-07  0.00000000E+00  0.00000000E+00 -2.01350346E-06 -2.24152758E-05
  0.00000000E+00  0.00000000E+00  1.57583480E-05  6.32431414E-04  0.00000000E+00
  0.00000000E+00  4.60456621E-04  1.14022780E-02  0.00000000E+00  0.00000000E+00
  2.47944763E-03 -4.75001432E-06  0.00000000E+00  0.00000000E+00 -7.04336784E-06
  0.00000000E+00  3.97466057E-07 -2.41492185E-06  0.00000000E+00  1.11862727E-06
  1.28327049E-06  3.06986781E-05  0.00000000E+00 -7.61760304E-06 -6.99768316E-07
 -8.84826942E-04  0.00000000E+00 -3.87532051E-04 -3.50913679E-04 -1.06959945E-02
  0.00000000E+00 -2.53276057E-03 -1.13600825E-03 -1.25898688E-06  0.00000000E+00
  6.88061243E-06  4.46950441E-06  0.00000000E+00  8.31916293E-07  1.05035624E-06
  0.00000000E+00 -8.61161700E-06 -5.39397322E-06 -1.90202900E-05  0.00000000E+00
  5.24973035E-05  2.25061198E-05  8.33936177E-04  0.00000000E+00  4.98476015E-04
 -5.16546116E-04  1.13209127E-02  0.00000000E+00  2.72326150E-03 -9.36111042E-04
 -2.71553220E-06  0.00000000E+00  2.63388476E-05 -6.52426598E-06  0.00000000E+00
 -3.40783154E-06 -2.86147575E-05  0.00000000E+00  0.00000000E+00  1.72067732E-05
  1.25805471E-04  0.00000000E+00  0.00000000E+00  2.08633835E-04 -9.38475825E-04
  0.00000000E+00  0.00000000E+00  6.44035648E-04 -1.36584017E-02  0.00000000E+00
  0.00000000E+00  1.83778674E-03  1.19062625E-04  0.00000000E+00  0.00000000E+00
  3.19440563E-05  0.00000000E+00  5.47671637E-01  4.73486471E-01  0.00000000E+00
  0.00000000E+00 -1.17315678E-03  6.24130644E-03  0.00000000E+00  0.00000000E+00
  4.46600073E-04 -1.12724285E-03  0.00000000E+00  0.00000000E+00 -1.06749718E-04
  1.08998639E-03  0.00000000E+00  0.00000000E+00 -7.69663635E-05 -1.34367733E-04
  0.00000000E+00  0.00000000E+00 -1.17130180E-05  0.00000000E+00 -5.07788012E-06
  7.20724648E-05  1.13531372E-04  4.68453540E-04  0.00000000E+00  0.00000000E+00
  6.12969861E-06 -6.24182381E-06  1.34219248E-04  2.16976170E-04  6.80309209E-04
  0.00000000E+00 -1.50367860E-05 -8.25556732E-06 -6.24182381E-06  1.34219248E-04
  2.16976170E-04  6.80309209E-04  0.00000000E+00  1.50367860E-05 -8.25556732E-06
  3.11635509E-06 -4.75304589E-05 -1.75429420E-04 -6.24443358E-04  0.00000000E+00
  5.57456781E-06  2.15454539E-06  3.11635509E-06 -4.75304589E-05 -1.75429420E-04
 -6.24443358E-04  0.00000000E+00 -5.57456781E-06  2.15454539E-06  4.13445508E-03
  3.38191003E-03  0.00000000E+00 -2.03546618E-04  9.87576577E-05  2.44278610E-04
  0.00000000E+00  7.04406685E-05  2.44869691E-05 -6.31616040E-05  0.00000000E+00
 -5.97180175E-05 -2.20535125E-04 -6.98807548E-03  0.00000000E+00  7.70414532E-04
  1.01542095E-03 -4.76910103E-05  0.00000000E+00 -4.90962053E-05  9.04443842E-05
  0.00000000E+00  9.27558674E-06  6.54022949E-06  0.00000000E+00  1.49487420E-05
 -9.78193231E-06 -2.15561624E-05  0.00000000E+00 -4.77664872E-05  4.95577235E-05
  1.26760312E-04  0.00000000E+00 -2.92884288E-04  5.11037029E-06  5.41869755E-03
  0.00000000E+00 -4.74292810E-04  1.09008845E-03  1.24557373E-05  0.00000000E+00
 -5.36547194E-05 -5.58087289E-06  0.00000000E+00 -6.26528258E-05 -5.22429849E-05
  0.00000000E+00  0.00000000E+00 -4.81190363E-06 -2.74064414E-06  0.00000000E+00
  0.00000000E+00  4.98033945E-06 -4.15777290E-04  0.00000000E+00  0.00000000E+00
 -2.05426113E-04 -3.28525201E-03  0.00000000E+00  0.00000000E+00 -1.29694244E-03
 -7.18367930E-06  0.00000000E+00  0.00000000E+00 -1.93941767E-05  0.00000000E+00