CH+                                                                     
SP        RMP2-FC                                                     6-311++G(d,p)       
Number of atoms                            I               10
Info1-9                                    I   N=           9
          24          19           0           0           0         110
           1           2           1
Charge                                     I                1
Multiplicity                               I                1
Number of electrons                        I               34
Number of alpha electrons                  I               17
Number of beta electrons                   I               17
Number of basis functions                  I              145
Number of independent functions            I              145
Number of point charges in /Mol/           I                0
Number of translation vectors              I                0
Atomic numbers                             I   N=          10
           6           1           6           1           6           1
           6           1           6           1
Nuclear charges                            R   N=          10
  6.00000000E+00  1.00000000E+00  6.00000000E+00  1.00000000E+00  6.00000000E+00
  1.00000000E+00  6.00000000E+00  1.00000000E+00  6.00000000E+00  1.00000000E+00
Current cartesian coordinates              R   N=          30
 -2.26681153E+00  6.59142144E-01 -5.55207541E-16 -4.17599429E+00  1.37577543E+00
 -1.02282115E-15 -1.48756029E+00 -1.76173309E+00 -3.64350426E-16 -2.62689507E+00
 -3.46110711E+00 -6.43410049E-16  2.26680964E+00  6.59159152E-01  5.55209392E-16
  4.17599240E+00  1.37579054E+00  1.02282560E-15  1.48756218E+00 -1.76172553E+00
  3.64344415E-16  2.62691019E+00 -3.46109010E+00  6.43401109E-16 -3.22931311E-21
  2.19224672E+00  3.93886061E-21 -7.55890453E-06  4.24809112E+00  5.81845052E-21
Force Field                                I                0
Int Atom Types                             I   N=          10
           0           0           0           0           0           0
           0           0           0           0
MM charges                                 R   N=          10
  0.00000000E+00  0.00000000E+00  0.00000000E+00  0.00000000E+00  0.00000000E+00
  0.00000000E+00  0.00000000E+00  0.00000000E+00  0.00000000E+00  0.00000000E+00
Integer atomic weights                     I   N=          10
          12           1          12           1          12           1
          12           1          12           1
Real atomic weights                        R   N=          10
  1.20000000E+01  1.00782504E+00  1.20000000E+01  1.00782504E+00  1.20000000E+01
  1.00782504E+00  1.20000000E+01  1.00782504E+00  1.20000000E+01  1.00782504E+00
Atom fragment info                         I   N=          10
           0           0           0           0           0           0
           0           0           0           0
Atom residue num                           I   N=          10
           0           0           0           0           0           0
           0           0           0           0
Nuclear spins                              I   N=          10
           0           1           0           1           0           1
           0           1           0           1
Nuclear ZEff                               R   N=          10
 -3.60000000E+00 -1.00000000E+00 -3.60000000E+00 -1.00000000E+00 -3.60000000E+00
 -1.00000000E+00 -3.60000000E+00 -1.00000000E+00 -3.60000000E+00 -1.00000000E+00
Nuclear QMom                               R   N=          10
  0.00000000E+00  0.00000000E+00  0.00000000E+00  0.00000000E+00  0.00000000E+00
  0.00000000E+00  0.00000000E+00  0.00000000E+00  0.00000000E+00  0.00000000E+00
Nuclear GFac                               R   N=          10
  0.00000000E+00  2.79284600E+00  0.00000000E+00  2.79284600E+00  0.00000000E+00
  2.79284600E+00  0.00000000E+00  2.79284600E+00  0.00000000E+00  2.79284600E+00
MicOpt                                     I   N=          10
          -1          -1          -1          -1          -1          -1
          -1          -1          -1          -1
Number of contracted shells                I               55
Number of primitive shells                 I              100
Pure/Cartesian d shells                    I                0
Pure/Cartesian f shells                    I                0
Highest angular momentum                   I                2
Largest degree of contraction              I                6
Shell types                                I   N=          55
           0          -1          -1          -1          -1          -2
           0           0           0           0           1           0
          -1          -1          -1          -1          -2           0
           0           0           0           1           0          -1
          -1          -1          -1          -2           0           0
           0           0           1           0          -1          -1
          -1          -1          -2           0           0           0
           0           1           0          -1          -1          -1
          -1          -2           0           0           0           0
           1
Number of primitives per shell             I   N=          55
           6           3           1           1           1           1
           3           1           1           1           1           6
           3           1           1           1           1           3
           1           1           1           1           6           3
           1           1           1           1           3           1
           1           1           1           6           3           1
           1           1           1           3           1           1
           1           1           6           3           1           1
           1           1           3           1           1           1
           1
Shell to atom map                          I   N=          55
           1           1           1           1           1           1
           2           2           2           2           2           3
           3           3           3           3           3           4
           4           4           4           4           5           5
           5           5           5           5           6           6
           6           6           6           7           7           7
           7           7           7           8           8           8
           8           8           9           9           9           9
           9           9          10          10          10          10
          10
Primitive exponents                        R   N=         100
  4.56324000E+03  6.82024000E+02  1.54973000E+02  4.44553000E+01  1.30290000E+01
  1.82773000E+00  2.09642000E+01  4.80331000E+00  1.45933000E+00  4.83456000E-01
  1.45585000E-01  4.38000000E-02  6.26000000E-01  3.38650000E+01  5.09479000E+00
  1.15879000E+00  3.25840000E-01  1.02741000E-01  3.60000000E-02  7.50000000E-01
  4.56324000E+03  6.82024000E+02  1.54973000E+02  4.44553000E+01  1.30290000E+01
  1.82773000E+00  2.09642000E+01  4.80331000E+00  1.45933000E+00  4.83456000E-01
  1.45585000E-01  4.38000000E-02  6.26000000E-01  3.38650000E+01  5.09479000E+00
  1.15879000E+00  3.25840000E-01  1.02741000E-01  3.60000000E-02  7.50000000E-01
  4.56324000E+03  6.82024000E+02  1.54973000E+02  4.44553000E+01  1.30290000E+01
  1.82773000E+00  2.09642000E+01  4.80331000E+00  1.45933000E+00  4.83456000E-01
  1.45585000E-01  4.38000000E-02  6.26000000E-01  3.38650000E+01  5.09479000E+00
  1.15879000E+00  3.25840000E-01  1.02741000E-01  3.60000000E-02  7.50000000E-01
  4.56324000E+03  6.82024000E+02  1.54973000E+02  4.44553000E+01  1.30290000E+01
  1.82773000E+00  2.09642000E+01  4.80331000E+00  1.45933000E+00  4.83456000E-01
  1.45585000E-01  4.38000000E-02  6.26000000E-01  3.38650000E+01  5.09479000E+00
  1.15879000E+00  3.25840000E-01  1.02741000E-01  3.60000000E-02  7.50000000E-01
  4.56324000E+03  6.82024000E+02  1.54973000E+02  4.44553000E+01  1.30290000E+01
  1.82773000E+00  2.09642000E+01  4.80331000E+00  1.45933000E+00  4.83456000E-01
  1.45585000E-01  4.38000000E-02  6.26000000E-01  3.38650000E+01  5.09479000E+00
  1.15879000E+00  3.25840000E-01  1.02741000E-01  3.60000000E-02  7.50000000E-01
Contraction coefficients                   R   N=         100
  1.96665025E-03  1.52306019E-02  7.61269097E-02  2.60801033E-01  6.16462078E-01
  2.21006028E-01  1.14660081E-01  9.19999648E-01 -3.03068213E-03  1.00000000E+00
  1.00000000E+00  1.00000000E+00  1.00000000E+00  2.54938145E-02  1.90373109E-01
  8.52161486E-01  1.00000000E+00  1.00000000E+00  1.00000000E+00  1.00000000E+00
  1.96665025E-03  1.52306019E-02  7.61269097E-02  2.60801033E-01  6.16462078E-01
  2.21006028E-01  1.14660081E-01  9.19999648E-01 -3.03068213E-03  1.00000000E+00
  1.00000000E+00  1.00000000E+00  1.00000000E+00  2.54938145E-02  1.90373109E-01
  8.52161486E-01  1.00000000E+00  1.00000000E+00  1.00000000E+00  1.00000000E+00
  1.96665025E-03  1.52306019E-02  7.61269097E-02  2.60801033E-01  6.16462078E-01
  2.21006028E-01  1.14660081E-01  9.19999648E-01 -3.03068213E-03  1.00000000E+00
  1.00000000E+00  1.00000000E+00  1.00000000E+00  2.54938145E-02  1.90373109E-01
  8.52161486E-01  1.00000000E+00  1.00000000E+00  1.00000000E+00  1.00000000E+00
  1.96665025E-03  1.52306019E-02  7.61269097E-02  2.60801033E-01  6.16462078E-01
  2.21006028E-01  1.14660081E-01  9.19999648E-01 -3.03068213E-03  1.00000000E+00
  1.00000000E+00  1.00000000E+00  1.00000000E+00  2.54938145E-02  1.90373109E-01
  8.52161486E-01  1.00000000E+00  1.00000000E+00  1.00000000E+00  1.00000000E+00
  1.96665025E-03  1.52306019E-02  7.61269097E-02  2.60801033E-01  6.16462078E-01
  2.21006028E-01  1.14660081E-01  9.19999648E-01 -3.03068213E-03  1.00000000E+00
  1.00000000E+00  1.00000000E+00  1.00000000E+00  2.54938145E-02  1.90373109E-01
  8.52161486E-01  1.00000000E+00  1.00000000E+00  1.00000000E+00  1.00000000E+00
P(S=P) Contraction coefficients            R   N=         100
  0.00000000E+00  0.00000000E+00  0.00000000E+00  0.00000000E+00  0.00000000E+00
  0.00000000E+00  4.02486927E-02  2.37593957E-01  8.15853851E-01  1.00000000E+00
  1.00000000E+00  1.00000000E+00  0.00000000E+00  0.00000000E+00  0.00000000E+00
  0.00000000E+00  0.00000000E+00  0.00000000E+00  0.00000000E+00  0.00000000E+00
  0.00000000E+00  0.00000000E+00  0.00000000E+00  0.00000000E+00  0.00000000E+00
  0.00000000E+00  4.02486927E-02  2.37593957E-01  8.15853851E-01  1.00000000E+00
  1.00000000E+00  1.00000000E+00  0.00000000E+00  0.00000000E+00  0.00000000E+00
  0.00000000E+00  0.00000000E+00  0.00000000E+00  0.00000000E+00  0.00000000E+00
  0.00000000E+00  0.00000000E+00  0.00000000E+00  0.00000000E+00  0.00000000E+00
  0.00000000E+00  4.02486927E-02  2.37593957E-01  8.15853851E-01  1.00000000E+00
  1.00000000E+00  1.00000000E+00  0.00000000E+00  0.00000000E+00  0.00000000E+00
  0.00000000E+00  0.00000000E+00  0.00000000E+00  0.00000000E+00  0.00000000E+00
  0.00000000E+00  0.00000000E+00  0.00000000E+00  0.00000000E+00  0.00000000E+00
  0.00000000E+00  4.02486927E-02  2.37593957E-01  8.15853851E-01  1.00000000E+00
  1.00000000E+00  1.00000000E+00  0.00000000E+00  0.00000000E+00  0.00000000E+00
  0.00000000E+00  0.00000000E+00  0.00000000E+00  0.00000000E+00  0.00000000E+00
  0.00000000E+00  0.00000000E+00  0.00000000E+00  0.00000000E+00  0.00000000E+00
  0.00000000E+00  4.02486927E-02  2.37593957E-01  8.15853851E-01  1.00000000E+00
  1.00000000E+00  1.00000000E+00  0.00000000E+00  0.00000000E+00  0.00000000E+00
  0.00000000E+00  0.00000000E+00  0.00000000E+00  0.00000000E+00  0.00000000E+00
Coordinates of each shell                  R   N=         165
 -2.26681165E+00  6.59142420E-01 -1.11762071E-31 -2.26681165E+00  6.59142420E-01
 -1.11762071E-31 -2.26681165E+00  6.59142420E-01 -1.11762071E-31 -2.26681165E+00
  6.59142420E-01 -1.11762071E-31 -2.26681165E+00  6.59142420E-01 -1.11762071E-31
 -2.26681165E+00  6.59142420E-01 -1.11762071E-31 -4.17599435E+00  1.37577584E+00
 -2.05891641E-31 -4.17599435E+00  1.37577584E+00 -2.05891641E-31 -4.17599435E+00
  1.37577584E+00 -2.05891641E-31 -4.17599435E+00  1.37577584E+00 -2.05891641E-31
 -4.17599435E+00  1.37577584E+00 -2.05891641E-31 -1.48756058E+00 -1.76173287E+00
 -7.33433931E-32 -1.48756058E+00 -1.76173287E+00 -7.33433931E-32 -1.48756058E+00
 -1.76173287E+00 -7.33433931E-32 -1.48756058E+00 -1.76173287E+00 -7.33433931E-32
 -1.48756058E+00 -1.76173287E+00 -7.33433931E-32 -1.48756058E+00 -1.76173287E+00
 -7.33433931E-32 -2.62689549E+00 -3.46110681E+00 -1.29517900E-31 -2.62689549E+00
 -3.46110681E+00 -1.29517900E-31 -2.62689549E+00 -3.46110681E+00 -1.29517900E-31
 -2.62689549E+00 -3.46110681E+00 -1.29517900E-31 -2.62689549E+00 -3.46110681E+00
 -1.29517900E-31  2.26680953E+00  6.59159092E-01  1.11762711E-31  2.26680953E+00
  6.59159092E-01  1.11762711E-31  2.26680953E+00  6.59159092E-01  1.11762711E-31
  2.26680953E+00  6.59159092E-01  1.11762711E-31  2.26680953E+00  6.59159092E-01
  1.11762711E-31  2.26680953E+00  6.59159092E-01  1.11762711E-31  4.17599234E+00
  1.37579034E+00  2.05893095E-31  4.17599234E+00  1.37579034E+00  2.05893095E-31
  4.17599234E+00  1.37579034E+00  2.05893095E-31  4.17599234E+00  1.37579034E+00
  2.05893095E-31  4.17599234E+00  1.37579034E+00  2.05893095E-31  1.48756188E+00
 -1.76172554E+00  7.33414694E-32  1.48756188E+00 -1.76172554E+00  7.33414694E-32
  1.48756188E+00 -1.76172554E+00  7.33414694E-32  1.48756188E+00 -1.76172554E+00
  7.33414694E-32  1.48756188E+00 -1.76172554E+00  7.33414694E-32  1.48756188E+00
 -1.76172554E+00  7.33414694E-32  2.62690977E+00 -3.46109019E+00  1.29514698E-31
  2.62690977E+00 -3.46109019E+00  1.29514698E-31  2.62690977E+00 -3.46109019E+00
  1.29514698E-31  2.62690977E+00 -3.46109019E+00  1.29514698E-31  2.62690977E+00
 -3.46109019E+00  1.29514698E-31  9.64742608E-37  2.19224683E+00  1.23694741E-36
  9.64742608E-37  2.19224683E+00  1.23694741E-36  9.64742608E-37  2.19224683E+00
  1.23694741E-36  9.64742608E-37  2.19224683E+00  1.23694741E-36  9.64742608E-37
  2.19224683E+00  1.23694741E-36  9.64742608E-37  2.19224683E+00  1.23694741E-36
 -7.40700625E-06  4.24809123E+00  2.03173787E-36 -7.40700625E-06  4.24809123E+00
  2.03173787E-36 -7.40700625E-06  4.24809123E+00  2.03173787E-36 -7.40700625E-06
  4.24809123E+00  2.03173787E-36 -7.40700625E-06  4.24809123E+00  2.03173787E-36
Constraint Structure                       R   N=          30
 -2.26681165E+00  6.59142420E-01 -1.11762071E-31 -4.17599435E+00  1.37577584E+00
 -2.05891641E-31 -1.48756058E+00 -1.76173287E+00 -7.33433931E-32 -2.62689549E+00
 -3.46110681E+00 -1.29517900E-31  2.26680953E+00  6.59159092E-01  1.11762711E-31
  4.17599234E+00  1.37579034E+00  2.05893095E-31  1.48756188E+00 -1.76172554E+00
  7.33414694E-32  2.62690977E+00 -3.46109019E+00  1.29514698E-31  9.64742608E-37
  2.19224683E+00  1.23694741E-36 -7.40700625E-06  4.24809123E+00  2.03173787E-36
Num ILSW                                   I              100
ILSW                                       I   N=         100
           0           0           0           0           2           0
           0           0           0           0           0          -1
           0           0           0           0           0           0
           0           0           0           0           0           0
           1           0           0           0           0           0
           0           0      100000           0          -1           0
           0           0           0           0           0           0
           0           0           0           1           0           0
           0           0           1           0           0           0
           0           0           4          40           0           0
           0           0           0           0           0           0
           0           0           0           0           0           0
           0           0           0           0           0           0
           0           0           0           0           0           0
           0           0           0           0           0           0
           0           0           0           0           0           0
           0           0           0           0
Num RLSW                                   I               40
RLSW                                       R   N=          40
  1.00000000E+00  1.00000000E+00  1.00000000E+00  1.00000000E+00  1.00000000E+00
  0.00000000E+00  0.00000000E+00  1.00000000E+00  0.00000000E+00  0.00000000E+00
  0.00000000E+00  0.00000000E+00  1.00000000E+00  0.00000000E+00  0.00000000E+00
  0.00000000E+00  0.00000000E+00  1.00000000E+00  0.00000000E+00  0.00000000E+00
  0.00000000E+00  0.00000000E+00  1.00000000E+00  0.00000000E+00  0.00000000E+00
  0.00000000E+00  0.00000000E+00  1.00000000E+00  0.00000000E+00  0.00000000E+00
  0.00000000E+00  0.00000000E+00  0.00000000E+00  0.00000000E+00  0.00000000E+00
  0.00000000E+00  0.00000000E+00  0.00000000E+00  1.00000000E+00  1.00000000E+00
MxBond                                     I                3
NBond                                      I   N=          10
           3           1           3           1           3           1
           3           1           3           1
IBond                                      I   N=          30
           2           3           9           1           0           0
           1           4           7           3           0           0
           6           7           9           5           0           0
           3           5           8           7           0           0
           1           5          10           9           0           0
RBond                                      R   N=          30
  1.00000000E+00  2.00000000E+00  1.00000000E+00  1.00000000E+00  0.00000000E+00
  0.00000000E+00  2.00000000E+00  1.00000000E+00  1.00000000E+00  1.00000000E+00
  0.00000000E+00  0.00000000E+00  1.00000000E+00  2.00000000E+00  1.00000000E+00
  1.00000000E+00  0.00000000E+00  0.00000000E+00  1.00000000E+00  2.00000000E+00
  1.00000000E+00  1.00000000E+00  0.00000000E+00  0.00000000E+00  1.00000000E+00
  1.00000000E+00  1.00000000E+00  1.00000000E+00  0.00000000E+00  0.00000000E+00
Virial Ratio                               R      2.001278742618458E+00
SCF Energy                                 R     -1.919423748834224E+02
MP2 Energy                                 R     -1.925890481966998E+02
Total Energy                               R     -1.925890481966998E+02
Post-SCF wavefunction norm                 R      1.112312977564860E+00
RMS Density                                R      3.529573278067314E-09
External E-field                           R   N=          35
  0.00000000E+00  0.00000000E+00  0.00000000E+00  0.00000000E+00  0.00000000E+00
  0.00000000E+00  0.00000000E+00  0.00000000E+00  0.00000000E+00  0.00000000E+00
  0.00000000E+00  0.00000000E+00  0.00000000E+00  0.00000000E+00  0.00000000E+00
  0.00000000E+00  0.00000000E+00  0.00000000E+00  0.00000000E+00  0.00000000E+00
  0.00000000E+00  0.00000000E+00  0.00000000E+00  0.00000000E+00  0.00000000E+00
  0.00000000E+00  0.00000000E+00  0.00000000E+00  0.00000000E+00  0.00000000E+00
  0.00000000E+00  0.00000000E+00  0.00000000E+00  0.00000000E+00  0.00000000E+00
IOpCl                                      I                0
IROHF                                      I                0
Alpha Orbital Energies                     R   N=         145
 -1.15693038E+01 -1.15129209E+01 -1.15124241E+01 -1.14521149E+01 -1.14520846E+01
 -1.40987704E+00 -1.22172745E+00 -1.18055518E+00 -9.84075116E-01 -9.81472002E-01
 -9.39249525E-01 -8.13015716E-01 -7.91854824E-01 -7.75007541E-01 -7.47823699E-01
 -7.07948925E-01 -5.53347589E-01 -2.42454133E-01 -8.60401598E-02 -7.08089186E-02
 -6.47785868E-02 -4.28947409E-02 -4.23324143E-02 -3.32145507E-02 -2.07311767E-02
 -1.79538909E-02 -1.53823103E-02  9.15419918E-03  1.03890611E-02  1.27475301E-02
  1.40117389E-02  4.21715118E-02  4.83543312E-02  4.97420510E-02  6.84732116E-02
  7.02180606E-02  7.13759743E-02  7.26471847E-02  7.47517867E-02  7.71373026E-02
  8.54089459E-02  8.77049165E-02  1.38904175E-01  1.39885328E-01  1.40260729E-01
  1.57534986E-01  1.68501711E-01  2.18819845E-01  2.40271410E-01  2.45434119E-01
  2.73568955E-01  2.77843639E-01  3.50591009E-01  3.54046000E-01  4.04108961E-01
  4.05016081E-01  4.96669032E-01  5.07694996E-01  5.07783882E-01  5.23342251E-01
  5.32173102E-01  5.40739515E-01  5.42214743E-01  5.85294137E-01  6.21350117E-01
  6.22014269E-01  6.52303479E-01  7.09423687E-01  7.45178364E-01  7.80254682E-01
  7.82344173E-01  7.82900043E-01  7.99662373E-01  8.06567351E-01  8.40560798E-01
  8.65571393E-01  8.83752964E-01  8.93893835E-01  9.13328375E-01  1.01334699E+00
  1.01368339E+00  1.06147128E+00  1.08358527E+00  1.13155437E+00  1.13223326E+00
  1.25089130E+00  1.48139152E+00  1.55413937E+00  1.56139206E+00  1.57326864E+00
  1.57362107E+00  1.58136551E+00  1.59391382E+00  1.71434381E+00  1.74362359E+00
  1.75084665E+00  1.78210351E+00  1.82250962E+00  1.88476453E+00  1.89379367E+00
  1.90708362E+00  1.95297611E+00  1.96859715E+00  1.99312135E+00  2.00958883E+00
  2.08647632E+00  2.09444998E+00  2.21722897E+00  2.32760289E+00  2.32879198E+00
  2.39752924E+00  2.40270495E+00  2.49166600E+00  2.51433727E+00  2.58482922E+00
  2.72464547E+00  2.73681850E+00  2.76386842E+00  2.81138825E+00  2.82293989E+00
  2.83962646E+00  2.84614032E+00  2.85646375E+00  2.86390172E+00  2.90566869E+00
  2.94315924E+00  3.12884613E+00  3.13451913E+00  3.19818082E+00  3.29526471E+00
  3.42767054E+00  3.43493303E+00  3.50771103E+00  3.65290252E+00  3.67806136E+00
  4.16501543E+00  4.18621223E+00  4.23152336E+00  4.24831848E+00  4.77377267E+00
  2.45210918E+01  2.46727925E+01  2.47923759E+01  2.51516919E+01  2.51755933E+01
Alpha MO coefficients                      R   N=       21025
  2.14028460E-03  1.71365151E-03  1.34512738E-04  8.55042489E-05  0.00000000E+00
  2.70215776E-04  1.93599337E-04  2.14828611E-04  0.00000000E+00  1.14156091E-04
  1.59672685E-04 -1.29573175E-04  0.00000000E+00 -2.53830177E-03 -5.07180614E-04
  3.52395802E-04  0.00000000E+00  2.95334671E-05  0.00000000E+00  0.00000000E+00
  4.24948998E-06  1.69932482E-04  1.20252674E-05  9.54110926E-05  5.82645184E-05
 -1.79753769E-04  5.15378786E-05  4.19204153E-06  0.00000000E+00  7.10199115E-05
  5.05892570E-05 -3.22615109E-06 -4.29932453E-06  0.00000000E+00  4.63953772E-05
  1.45207370E-05  7.18165486E-05  0.00000000E+00 -1.41115627E-04 -1.25927708E-05
 -1.01333319E-04  0.00000000E+00  8.80824520E-04 -2.45341016E-04  3.86656718E-06
  0.00000000E+00  1.14182769E-05  0.00000000E+00  0.00000000E+00 -2.74098009E-05
 -1.83300169E-05  6.50282174E-06  3.52872349E-05 -8.24434600E-05 -1.23707401E-04
  3.09178577E-06  2.11481654E-05  0.00000000E+00  2.14034079E-03  1.71369807E-03
 -1.34517144E-04  8.55067353E-05  0.00000000E+00  2.70216474E-04 -1.93587056E-04
  2.14817429E-04  0.00000000E+00  1.14150284E-04 -1.59674816E-04 -1.29563919E-04
  0.00000000E+00 -2.53830191E-03  5.07171770E-04  3.52372158E-04  0.00000000E+00
  2.95372866E-05  0.00000000E+00  0.00000000E+00  4.24810564E-06 -1.69925473E-04
  1.20250179E-05  9.54063185E-05  5.82704721E-05 -1.79746488E-04 -5.15359516E-05
  4.19262714E-06  0.00000000E+00  7.10313904E-05  5.05990732E-05  3.22642948E-06
 -4.29897929E-06  0.00000000E+00  4.63930751E-05 -1.45228278E-05  7.18128155E-05
  0.00000000E+00 -1.41107874E-04  1.25941199E-05 -1.01326130E-04  0.00000000E+00
  8.80766987E-04  2.45338714E-04  3.86145968E-06  0.00000000E+00  1.14193235E-05
  0.00000000E+00  0.00000000E+00 -2.74083412E-05  1.83291377E-05  6.50285663E-06
  3.52875762E-05 -8.24398838E-05 -1.23705264E-04 -3.09221329E-06  2.11480641E-05
  0.00000000E+00  5.63495910E-01  4.66699509E-01 -1.26241780E-08  5.12135926E-05
  0.00000000E+00  3.39659708E-03  1.93968997E-08 -8.68720833E-05  0.00000000E+00
 -7.07283852E-04 -7.12387997E-09  1.63788696E-04  0.00000000E+00  3.13502730E-03
  1.97700384E-08 -1.80686192E-03  0.00000000E+00 -6.11959082E-04  0.00000000E+00
  0.00000000E+00 -1.04482579E-04 -1.16376820E-08  3.84167827E-04 -1.37761311E-04
  5.06447910E-04  7.72149139E-04  1.23640741E-09 -3.75442712E-05  0.00000000E+00
  5.10783374E-03  4.18945613E-03  5.65294932E-05 -1.57670570E-04  0.00000000E+00
  2.25138773E-04 -3.66148998E-05 -1.84402377E-05  0.00000000E+00 -3.41050284E-04
 -1.07437700E-04  4.46983732E-05  0.00000000E+00  5.53877779E-04 -1.99635261E-05
 -1.32270442E-04  0.00000000E+00  7.96374750E-05  0.00000000E+00  0.00000000E+00
 -5.90598916E-05 -1.52444401E-05  1.22003906E-05 -2.55767253E-07 -4.49765656E-06
 -8.09416888E-05  5.17858370E-06 -2.78631621E-05  0.00000000E+00  3.96658949E-01
  3.28459712E-01  4.72791824E-04 -1.31901003E-04  0.00000000E+00  2.88477264E-03
 -7.39068221E-05  2.99255766E-04  0.00000000E+00 -3.01605042E-04  1.00997152E-04
  8.67210437E-05  0.00000000E+00 -1.80780457E-04  4.35311552E-04  4.70890196E-04
  0.00000000E+00 -3.76682681E-04  0.00000000E+00  0.00000000E+00 -1.38458069E-04
 -5.58202165E-05  2.70728483E-04 -4.12079601E-05  4.31763512E-04  3.69732114E-04
  1.24322045E-05  4.32839211E-05  0.00000000E+00  5.15224631E-03  4.22605508E-03
 -5.70902163E-05 -1.59205812E-04  0.00000000E+00  2.26053317E-04  3.76289926E-05
 -1.68572815E-05  0.00000000E+00 -3.39831849E-04  1.06041945E-04  4.24737635E-05
  0.00000000E+00  5.24359270E-04  1.97620967E-05 -1.28743544E-04  0.00000000E+00
  8.04008145E-05  0.00000000E+00  0.00000000E+00 -5.88100983E-05  1.46971951E-05
  1.22132451E-05 -6.03813822E-07 -2.26776613E-06 -7.98402912E-05 -5.05196584E-06
 -2.78227544E-05  0.00000000E+00  4.00030418E-01  3.31252177E-01 -4.76165466E-04
 -1.33218867E-04  0.00000000E+00  2.90686653E-03  8.14480168E-05  3.03110219E-04
  0.00000000E+00 -3.07368107E-04 -1.02577094E-04  8.33363808E-05  0.00000000E+00
 -1.42898850E-04 -4.40078424E-04  4.89307378E-04  0.00000000E+00 -3.79490769E-04
  0.00000000E+00  0.00000000E+00 -1.43286368E-04  5.54396939E-05  2.72833138E-04
 -4.38553441E-05  4.35956457E-04  3.76924824E-04 -1.16893017E-05  4.29703142E-05
  0.00000000E+00 -1.34563006E-04 -1.19836905E-04  5.39494448E-08  9.12689954E-06
  0.00000000E+00  3.34931729E-05 -2.09734434E-07 -7.64189309E-05  0.00000000E+00
  1.81275118E-04  3.19523367E-07 -4.53033794E-05  0.00000000E+00 -1.18610115E-03
  6.60571610E-07  6.46007053E-04  0.00000000E+00  2.01773773E-05  0.00000000E+00
  0.00000000E+00  5.05010122E-06 -1.35352347E-08  5.81809713E-06  5.22998284E-05
 -5.40450935E-05 -2.32490142E-04  3.26463461E-08 -2.40263067E-05  0.00000000E+00
  5.33459760E-03  4.39636097E-03  6.67624341E-05 -1.82424257E-04  0.00000000E+00
  1.08982208E-04 -1.20660270E-04  1.89019028E-04  0.00000000E+00  1.42305515E-04
  1.64196215E-04 -2.63767639E-04  0.00000000E+00 -3.49431359E-03  2.55510691E-05
  4.18237516E-04  0.00000000E+00  9.09240824E-05  0.00000000E+00  0.00000000E+00
  2.99988742E-05  6.49364191E-05  1.57518092E-06 -4.17559368E-05  2.64487878E-04
  1.30843535E-04 -1.51634736E-05  4.77924146E-06  0.00000000E+00  4.00084156E-01
  3.31374717E-01  4.03693068E-04 -1.56044767E-04  0.00000000E+00  2.62699172E-03
 -8.95231284E-04  4.58561455E-04  0.00000000E+00 -6.83218196E-04  1.88553850E-04
 -4.00758661E-04  0.00000000E+00  4.48222528E-03  5.63132195E-04  2.18421198E-03
  0.00000000E+00 -3.32747601E-04  0.00000000E+00  0.00000000E+00 -5.73289221E-04
  4.42794412E-05  2.49708043E-04 -3.14210831E-04  4.98423990E-04  8.52906761E-04
 -8.83330245E-05 -3.72137275E-05  0.00000000E+00 -5.29065092E-03 -4.36030984E-03
  6.62795134E-05  1.81081550E-04  0.00000000E+00 -1.07074314E-04 -1.20338511E-04
 -1.89154093E-04  0.00000000E+00 -1.45205723E-04  1.65111098E-04  2.64136386E-04
  0.00000000E+00  3.49893697E-03  2.56936712E-05 -4.19346880E-04  0.00000000E+00
 -9.02439818E-05  0.00000000E+00  0.00000000E+00 -3.04933961E-05  6.50617539E-05
 -1.47178613E-06  4.17465576E-05 -2.64514650E-04 -1.31515783E-04 -1.52048212E-05
 -5.01432471E-06  0.00000000E+00 -3.96713170E-01 -3.28583317E-01  3.99654021E-04
  1.54925146E-04  0.00000000E+00 -2.60244833E-03 -8.94557351E-04 -4.56000893E-04
  0.00000000E+00  6.80640829E-04  1.87682840E-04  4.01482542E-04  0.00000000E+00
 -4.48360645E-03  5.59441626E-04 -2.18014408E-03  0.00000000E+00  3.29551552E-04
  0.00000000E+00  0.00000000E+00  5.72085178E-04  4.47598527E-05 -2.47409047E-04
  3.13848304E-04 -4.94745975E-04 -8.49746697E-04 -8.84330315E-05  3.75766688E-05
  0.00000000E+00 -5.62759194E-07 -5.01622453E-07 -1.28229831E-05  3.87115108E-08
  0.00000000E+00  1.41780577E-07  4.99720743E-05 -3.23753401E-07  0.00000000E+00
  7.78911826E-07 -7.61626479E-05 -1.96556473E-07  0.00000000E+00 -5.07422256E-06
 -1.55759247E-04  2.74858107E-06  0.00000000E+00  8.48190750E-08  0.00000000E+00
  0.00000000E+00  2.10734631E-08  3.05573230E-06  2.44362661E-08  2.21476072E-07
 -2.28288406E-07 -9.88316647E-07 -7.67928764E-06 -1.01559064E-07  0.00000000E+00
  4.02264664E-01  3.33169848E-01  4.47443620E-04  2.28913078E-04  0.00000000E+00
  3.33328023E-03 -2.91973557E-04 -4.74467287E-04  0.00000000E+00 -5.88434737E-04
  1.86161138E-04  1.98955422E-04  0.00000000E+00  1.54597158E-03  1.68181729E-03
 -1.34059221E-03  0.00000000E+00 -2.81318125E-04  0.00000000E+00  0.00000000E+00
 -7.54908430E-05 -3.27446751E-04  2.55905636E-04 -3.46268095E-04  8.12160680E-04
  1.02048414E-03 -1.09951830E-04  5.38064069E-06  0.00000000E+00 -5.53827994E-03
 -4.61909802E-03 -5.65292456E-05  2.05321183E-04  0.00000000E+00  1.33457994E-04
 -1.19708454E-05 -1.54652307E-04  0.00000000E+00 -1.72387238E-04 -3.02965162E-05
  1.66841398E-04  0.00000000E+00 -2.30190299E-03  6.27969112E-05  4.17901316E-05
  0.00000000E+00  1.06504065E-04  0.00000000E+00  0.00000000E+00  3.85848854E-05