 Entering Gaussian System, Link 0=g09
 Initial command:
 /apps/software//g09/l1.exe /scratch/itamar/2416.cluster.abaxnet/Gau-26094.inp -scrdir=/scratch/itamar/2416.cluster.abaxnet/
 Entering Link 1 = /apps/software//g09/l1.exe PID=     26095.
  
 Copyright (c) 1988,1990,1992,1993,1995,1998,2003,2009, Gaussian, Inc.
                  All Rights Reserved.
  
 This is part of the Gaussian(R) 09 program.  It is based on
 the Gaussian(R) 03 system (copyright 2003, Gaussian, Inc.),
 the Gaussian(R) 98 system (copyright 1998, Gaussian, Inc.),
 the Gaussian(R) 94 system (copyright 1995, Gaussian, Inc.),
 the Gaussian 92(TM) system (copyright 1992, Gaussian, Inc.),
 the Gaussian 90(TM) system (copyright 1990, Gaussian, Inc.),
 the Gaussian 88(TM) system (copyright 1988, Gaussian, Inc.),
 the Gaussian 86(TM) system (copyright 1986, Carnegie Mellon
 University), and the Gaussian 82(TM) system (copyright 1983,
 Carnegie Mellon University). Gaussian is a federally registered
 trademark of Gaussian, Inc.
  
 This software contains proprietary and confidential information,
 including trade secrets, belonging to Gaussian, Inc.
  
 This software is provided under written license and may be
 used, copied, transmitted, or stored only in accord with that
 written license.
  
 The following legend is applicable only to US Government
 contracts under FAR:
  
                    RESTRICTED RIGHTS LEGEND
  
 Use, reproduction and disclosure by the US Government is
 subject to restrictions as set forth in subparagraphs (a)
 and (c) of the Commercial Computer Software - Restricted
 Rights clause in FAR 52.227-19.
  
 Gaussian, Inc.
 340 Quinnipiac St., Bldg. 40, Wallingford CT 06492
  
  
 ---------------------------------------------------------------
 Warning -- This program may not be used in any manner that
 competes with the business of Gaussian, Inc. or will provide
 assistance to any competitor of Gaussian, Inc.  The licensee
 of this program is prohibited from giving any competitor of
 Gaussian, Inc. access to this program.  By using this program,
 the user acknowledges that Gaussian, Inc. is engaged in the
 business of creating and licensing software in the field of
 computational chemistry and represents and warrants to the
 licensee that it is not a competitor of Gaussian, Inc. and that
 it will not use this program in any manner prohibited above.
 ---------------------------------------------------------------
  

 Cite this work as:
 Gaussian 09, Revision A.02,
 M. J. Frisch, G. W. Trucks, H. B. Schlegel, G. E. Scuseria, 
 M. A. Robb, J. R. Cheeseman, G. Scalmani, V. Barone, B. Mennucci, 
 G. A. Petersson, H. Nakatsuji, M. Caricato, X. Li, H. P. Hratchian, 
 A. F. Izmaylov, J. Bloino, G. Zheng, J. L. Sonnenberg, M. Hada, 
 M. Ehara, K. Toyota, R. Fukuda, J. Hasegawa, M. Ishida, T. Nakajima, 
 Y. Honda, O. Kitao, H. Nakai, T. Vreven, J. A. Montgomery, Jr., 
 J. E. Peralta, F. Ogliaro, M. Bearpark, J. J. Heyd, E. Brothers, 
 K. N. Kudin, V. N. Staroverov, R. Kobayashi, J. Normand, 
 K. Raghavachari, A. Rendell, J. C. Burant, S. S. Iyengar, J. Tomasi, 
 M. Cossi, N. Rega, J. M. Millam, M. Klene, J. E. Knox, J. B. Cross, 
 V. Bakken, C. Adamo, J. Jaramillo, R. Gomperts, R. E. Stratmann, 
 O. Yazyev, A. J. Austin, R. Cammi, C. Pomelli, J. W. Ochterski, 
 R. L. Martin, K. Morokuma, V. G. Zakrzewski, G. A. Voth, 
 P. Salvador, J. J. Dannenberg, S. Dapprich, A. D. Daniels, 
 O. Farkas, J. B. Foresman, J. V. Ortiz, J. Cioslowski, 
 and D. J. Fox, Gaussian, Inc., Wallingford CT, 2009.
 
 ******************************************
 Gaussian 09:  EM64L-G09RevA.02 11-Jun-2009
                 3-Dec-2021 
 ******************************************
 %Mem=3800MB
 %NProcShared=6
 Will use up to    6 processors via shared memory.
 %chk=/home/itamar/Aromaticity-test-set/T2-Clamping/20/clamp-20.chk
 -----------------------------
 #P MP2/6-311++G** DENSITY=MP2
 -----------------------------
 1/30=1,38=1/1;
 2/12=2,17=6,18=5,40=1/2;
 3/5=4,6=6,7=1111,11=9,16=1,25=1,30=1,71=1/1,2,3;
 4//1;
 5/5=2,38=5/2;
 8/6=4,10=2/1;
 9/15=1,16=-3/6;
 10/5=1,13=10/2;
 6/7=2,8=2,9=2,10=2,22=2/1;
 99/5=1,9=1/99;
 Leave Link    1 at Fri Dec  3 11:34:51 2021, MaxMem=  498073600 cpu:       0.2
 (Enter /apps/software//g09/l101.exe)
 --------
 Clamp-20
 --------
 Symbolic Z-matrix:
 Charge =  0 Multiplicity = 1
 6                     0.02382   1.4082    0. 
 6                     1.20756   0.72468   0. 
 6                     1.20756  -0.72468   0. 
 6                     0.02382  -1.4082    0. 
 6                    -1.23135  -0.68345   0. 
 6                    -1.23135   0.68345   0. 
 1                    -0.34682   2.42638   0. 
 1                     2.27464   0.91284   0. 
 1                     2.27464  -0.91284   0. 
 1                    -0.34682  -2.42638   0. 
 1                    -1.92786  -1.51344   0. 
 1                    -1.92786   1.51344   0. 
 
 NAtoms=     12 NQM=     12 NQMF=      0 NMic=      0 NMicF=      0 NTot=     12.
                    Isotopes and Nuclear Properties:
 (Nuclear quadrupole moments (NQMom) in fm**2, nuclear magnetic moments (NMagM)
  in nuclear magnetons)

  Atom         1           2           3           4           5           6           7           8           9          10
 IAtWgt=          12          12          12          12          12          12           1           1           1           1
 AtmWgt=  12.0000000  12.0000000  12.0000000  12.0000000  12.0000000  12.0000000   1.0078250   1.0078250   1.0078250   1.0078250
 NucSpn=           0           0           0           0           0           0           1           1           1           1
 AtZEff=   0.0000000   0.0000000   0.0000000   0.0000000   0.0000000   0.0000000   0.0000000   0.0000000   0.0000000   0.0000000
 NQMom=    0.0000000   0.0000000   0.0000000   0.0000000   0.0000000   0.0000000   0.0000000   0.0000000   0.0000000   0.0000000
 NMagM=    0.0000000   0.0000000   0.0000000   0.0000000   0.0000000   0.0000000   2.7928460   2.7928460   2.7928460   2.7928460

  Atom        11          12
 IAtWgt=           1           1
 AtmWgt=   1.0078250   1.0078250
 NucSpn=           1           1
 AtZEff=   0.0000000   0.0000000
 NQMom=    0.0000000   0.0000000
 NMagM=    2.7928460   2.7928460
 Leave Link  101 at Fri Dec  3 11:34:51 2021, MaxMem=  498073600 cpu:       0.2
 (Enter /apps/software//g09/l202.exe)
                          Input orientation:                          
 ---------------------------------------------------------------------
 Center     Atomic      Atomic             Coordinates (Angstroms)
 Number     Number       Type             X           Y           Z
 ---------------------------------------------------------------------
      1          6           0        0.023822    1.408200    0.000000
      2          6           0        1.207564    0.724681    0.000000
      3          6           0        1.207564   -0.724681    0.000000
      4          6           0        0.023822   -1.408200    0.000000
      5          6           0       -1.231347   -0.683446    0.000000
      6          6           0       -1.231347    0.683446    0.000000
      7          1           0       -0.346819    2.426379    0.000000
      8          1           0        2.274643    0.912837    0.000000
      9          1           0        2.274643   -0.912837    0.000000
     10          1           0       -0.346819   -2.426379    0.000000
     11          1           0       -1.927863   -1.513436    0.000000
     12          1           0       -1.927863    1.513436    0.000000
 ---------------------------------------------------------------------
                    Distance matrix (angstroms):
                    1          2          3          4          5
     1  C    0.000000
     2  C    1.366910   0.000000
     3  C    2.439350   1.449362   0.000000
     4  C    2.816400   2.439350   1.366910   0.000000
     5  C    2.439351   2.816222   2.439260   1.449385   0.000000
     6  C    1.449385   2.439260   2.816222   2.439351   1.366892
     7  H    1.083542   2.304752   3.513586   3.852450   3.233172
     8  H    2.304686   1.083541   1.954513   3.233173   3.852283
     9  H    3.233173   1.954513   1.083541   2.304686   3.513486
    10  H    3.852450   3.513586   2.304752   1.083542   1.954535
    11  H    3.513550   3.852281   3.233116   1.954520   1.083521
    12  H    1.954520   3.233116   3.852281   3.513550   2.304653
                    6          7          8          9         10
     6  C    0.000000
     7  H    1.954535   0.000000
     8  H    3.513486   3.027024   0.000000
     9  H    3.852283   4.245283   1.825674   0.000000
    10  H    3.233172   4.852758   4.245283   3.027024   0.000000
    11  H    2.304653   4.245214   4.852613   4.245206   1.825696
    12  H    1.083521   1.825696   4.245206   4.852613   4.245214
                   11         12
    11  H    0.000000
    12  H    3.026872   0.000000
 Stoichiometry    C6H6
 Framework group  C2V[SGV(C6H6)]
 Deg. of freedom    11
 Full point group                 C2V     NOp   4
 Largest Abelian subgroup         C2V     NOp   4
 Largest concise Abelian subgroup C2      NOp   2
                         Standard orientation:                         
 ---------------------------------------------------------------------
 Center     Atomic      Atomic             Coordinates (Angstroms)
 Number     Number       Type             X           Y           Z
 ---------------------------------------------------------------------
      1          6           0        0.000000    1.408200    0.023813
      2          6           0        0.000000    0.724681    1.207555
      3          6           0        0.000000   -0.724681    1.207555
      4          6           0        0.000000   -1.408200    0.023813
      5          6           0        0.000000   -0.683446   -1.231356
      6          6           0        0.000000    0.683446   -1.231356
      7          1           0        0.000000    2.426379   -0.346828
      8          1           0        0.000000    0.912837    2.274634
      9          1           0        0.000000   -0.912837    2.274634
     10          1           0        0.000000   -2.426379   -0.346828
     11          1           0        0.000000   -1.513436   -1.927872
     12          1           0        0.000000    1.513436   -1.927872
 ---------------------------------------------------------------------
 Rotational constants (GHZ):      5.6427365      5.6422741      2.8212526
 Leave Link  202 at Fri Dec  3 11:34:51 2021, MaxMem=  498073600 cpu:       0.1
 (Enter /apps/software//g09/l301.exe)
 Standard basis: 6-311++G(d,p) (5D, 7F)
 Ernie: Thresh=  0.10000D-02 Tol=  0.10000D-05 Strict=F.
 There are    66 symmetry adapted basis functions of A1  symmetry.
 There are    21 symmetry adapted basis functions of A2  symmetry.
 There are    21 symmetry adapted basis functions of B1  symmetry.
 There are    66 symmetry adapted basis functions of B2  symmetry.
 Integral buffers will be    131072 words long.
 Raffenetti 1 integral format.
 Two-electron integral symmetry is turned on.
   174 basis functions,   270 primitive gaussians,   180 cartesian basis functions
    21 alpha electrons       21 beta electrons
       nuclear repulsion energy       202.7163424500 Hartrees.
 IExCor=    0 DFT=F Ex=HF Corr=None ExCW=0 ScaHFX=  1.000000
 ScaDFX=  1.000000  1.000000  1.000000  1.000000 ScalE2=  1.000000  1.000000
 IRadAn=      0 IRanWt=     -1 IRanGd=            0 ICorTp=0
 NAtoms=   12 NActive=   12 NUniq=    6 SFac= 3.00D+00 NAtFMM=   80 NAOKFM=F Big=F
 Leave Link  301 at Fri Dec  3 11:34:51 2021, MaxMem=  498073600 cpu:       0.2
 (Enter /apps/software//g09/l302.exe)
 NPDir=0 NMtPBC=     1 NCelOv=     1 NCel=       1 NClECP=     1 NCelD=      1
         NCelK=      1 NCelE2=     1 NClLst=     1 CellRange=     0.0.
 One-electron integrals computed using PRISM.
 One-electron integral symmetry used in STVInt
 NBasis=   174 RedAO= T  NBF=    66    21    21    66
 NBsUse=   174 1.00D-06 NBFU=    66    21    21    66
 Leave Link  302 at Fri Dec  3 11:34:51 2021, MaxMem=  498073600 cpu:       1.3
 (Enter /apps/software//g09/l303.exe)
 DipDrv:  MaxL=1.
 Leave Link  303 at Fri Dec  3 11:34:51 2021, MaxMem=  498073600 cpu:       0.2
 (Enter /apps/software//g09/l401.exe)
 Harris functional with IExCor=  205 diagonalized for initial guess.
 ExpMin= 3.60D-02 ExpMax= 4.56D+03 ExpMxC= 6.82D+02 IAcc=3 IRadAn=         0 AccDes= 0.00D+00
 HarFok:  IExCor=  205 AccDes= 0.00D+00 IRadAn=         0 IDoV= 1
 ScaDFX=  1.000000  1.000000  1.000000  1.000000
 FoFCou: FMM=F IPFlag=           0 FMFlag=      100000 FMFlg1=           0
         NFxFlg=           0 DoJE=T BraDBF=F KetDBF=T FulRan=T
         Omega=  0.000000  0.000000  1.000000  0.000000  0.000000 ICntrl=     500 IOpCl=  0
         NMat0=    1 NMatS0=    1 NMatT0=    0 NMatD0=    1 NMtDS0=    0 NMtDT0=    0
         I1Cent=           4 NGrid=           0.
 Petite list used in FoFCou.
 Harris En= -231.065591541559    
 Initial guess orbital symmetries:
       Occupied  (A1) (A1) (B2) (B2) (A1) (B2) (A1) (B2) (A1) (A1)
                 (B2) (A1) (A1) (B2) (B2) (A1) (B1) (A1) (B2) (A2)
                 (B1)
       Virtual   (B1) (A2) (A1) (B2) (A1) (A2) (A1) (B2) (A1) (B1)
                 (A1) (B2) (B2) (A1) (B1) (A2) (A1) (A1) (B2) (B2)
                 (A1) (A1) (B2) (B1) (A2) (B2) (B2) (A1) (A1) (B2)
                 (A2) (A1) (A1) (B2) (A1) (B2) (B2) (B2) (A1) (B2)
                 (B2) (A1) (B2) (B2) (A1) (B2) (B1) (A1) (A1) (B2)
                 (A1) (B2) (B1) (A2) (A1) (A2) (B1) (A2) (B2) (A1)
                 (A1) (B2) (A1) (B2) (B2) (A1) (B2) (B1) (A1) (B2)
                 (B2) (B2) (A1) (B1) (B2) (A1) (A2) (B1) (B1) (A2)
                 (A1) (A1) (B2) (B2) (A1) (A1) (A2) (B1) (A2) (B2)
                 (A1) (A1) (B2) (B1) (B1) (A2) (B2) (A1) (B1) (A2)
                 (A1) (B2) (B2) (A1) (B2) (A1) (B2) (A2) (B1) (A2)
                 (B2) (A1) (A1) (B2) (A1) (B2) (A2) (A1) (B1) (B2)
                 (A1) (A1) (B2) (A2) (B1) (A2) (B1) (A1) (B2) (B2)
                 (A1) (A1) (B2) (A2) (B2) (B2) (A1) (A1) (B2) (A1)
                 (B2) (A1) (B2) (B2) (A1) (B2) (B2) (A1) (A1) (B2)
                 (A1) (B2) (B2)
 The electronic state of the initial guess is 1-A1.
 Leave Link  401 at Fri Dec  3 11:34:52 2021, MaxMem=  498073600 cpu:       2.3
 (Enter /apps/software//g09/l502.exe)
 Closed shell SCF:
 Requested convergence on RMS density matrix=1.00D-08 within 128 cycles.
 Requested convergence on MAX density matrix=1.00D-06.
 Requested convergence on             energy=1.00D-06.
 No special actions if energy rises.
 Using DIIS extrapolation, IDIIS=  1040.
 Integral symmetry usage will be decided dynamically.
 Keep R1 ints in memory in canonical form, NReq=135773131.
 IEnd=      118142 IEndB=      118142 NGot=   498073600 MDV=   365314456
 LenX=   365314456 LenY=   365281615
 Symmetry not used in FoFDir.
 MinBra= 0 MaxBra= 2 Meth= 1.
 IRaf=       0 NMat=   1 IRICut=       1 DoRegI=T DoRafI=F ISym2E= 0 JSym2E=0.

 Cycle   1  Pass 1  IDiag  1:
 E= -230.365726208237    
 DIIS: error= 5.84D-02 at cycle   1 NSaved=   1.
 NSaved= 1 IEnMin= 1 EnMin= -230.365726208237     IErMin= 1 ErrMin= 5.84D-02
 ErrMax= 5.84D-02 EMaxC= 1.00D-01 BMatC= 5.08D-01 BMatP= 5.08D-01
 IDIUse=3 WtCom= 4.16D-01 WtEn= 5.84D-01
 Coeff-Com:  0.100D+01
 Coeff-En:   0.100D+01
 Coeff:      0.100D+01
 Gap=     0.354 Goal=   None    Shift=    0.000
 GapD=    0.354 DampG=1.000 DampE=0.500 DampFc=0.5000 IDamp=-1.
 Damping current iteration by 5.00D-01
 RMSDP=7.11D-03 MaxDP=1.74D-01              OVMax= 1.56D-01

 Cycle   2  Pass 1  IDiag  1:
 E= -230.520486989238     Delta-E=       -0.154760781001 Rises=F Damp=T
 DIIS: error= 3.33D-02 at cycle   2 NSaved=   2.
 NSaved= 2 IEnMin= 2 EnMin= -230.520486989238     IErMin= 2 ErrMin= 3.33D-02
 ErrMax= 3.33D-02 EMaxC= 1.00D-01 BMatC= 1.10D-01 BMatP= 5.08D-01
 IDIUse=3 WtCom= 6.67D-01 WtEn= 3.33D-01
 Coeff-Com: -0.691D+00 0.169D+01
 Coeff-En:   0.000D+00 0.100D+01
 Coeff:     -0.461D+00 0.146D+01
 Gap=     0.391 Goal=   None    Shift=    0.000
 RMSDP=4.63D-03 MaxDP=1.55D-01 DE=-1.55D-01 OVMax= 4.78D-02

 Cycle   3  Pass 1  IDiag  1:
 E= -230.659497986492     Delta-E=       -0.139010997253 Rises=F Damp=F
 DIIS: error= 5.09D-03 at cycle   3 NSaved=   3.
 NSaved= 3 IEnMin= 3 EnMin= -230.659497986492     IErMin= 3 ErrMin= 5.09D-03
 ErrMax= 5.09D-03 EMaxC= 1.00D-01 BMatC= 1.12D-03 BMatP= 1.10D-01
 IDIUse=3 WtCom= 9.49D-01 WtEn= 5.09D-02
 Coeff-Com: -0.868D-01 0.135D+00 0.952D+00
 Coeff-En:   0.000D+00 0.000D+00 0.100D+01
 Coeff:     -0.824D-01 0.128D+00 0.954D+00
 Gap=     0.382 Goal=   None    Shift=    0.000
 RMSDP=9.45D-04 MaxDP=3.02D-02 DE=-1.39D-01 OVMax= 7.90D-03

 Cycle   4  Pass 1  IDiag  1:
 E= -230.660662694215     Delta-E=       -0.001164707724 Rises=F Damp=F
 DIIS: error= 1.01D-03 at cycle   4 NSaved=   4.
 NSaved= 4 IEnMin= 4 EnMin= -230.660662694215     IErMin= 4 ErrMin= 1.01D-03
 ErrMax= 1.01D-03 EMaxC= 1.00D-01 BMatC= 3.21D-05 BMatP= 1.12D-03
 IDIUse=3 WtCom= 9.90D-01 WtEn= 1.01D-02
 Coeff-Com:  0.105D-01-0.237D-01-0.257D-01 0.104D+01
 Coeff-En:   0.000D+00 0.000D+00 0.000D+00 0.100D+01
 Coeff:      0.104D-01-0.235D-01-0.254D-01 0.104D+01
 Gap=     0.381 Goal=   None    Shift=    0.000
 RMSDP=2.46D-04 MaxDP=8.42D-03 DE=-1.16D-03 OVMax= 3.15D-03

 Cycle   5  Pass 1  IDiag  1:
 E= -230.660742809902     Delta-E=       -0.000080115686 Rises=F Damp=F
 DIIS: error= 4.07D-04 at cycle   5 NSaved=   5.
 NSaved= 5 IEnMin= 5 EnMin= -230.660742809902     IErMin= 5 ErrMin= 4.07D-04
 ErrMax= 4.07D-04 EMaxC= 1.00D-01 BMatC= 3.76D-06 BMatP= 3.21D-05
 IDIUse=3 WtCom= 9.96D-01 WtEn= 4.07D-03
 Coeff-Com:  0.289D-02-0.334D-02-0.483D-01-0.245D+00 0.129D+01
 Coeff-En:   0.000D+00 0.000D+00 0.000D+00 0.000D+00 0.100D+01
 Coeff:      0.288D-02-0.333D-02-0.481D-01-0.244D+00 0.129D+01
 Gap=     0.382 Goal=   None    Shift=    0.000
 RMSDP=6.68D-05 MaxDP=2.08D-03 DE=-8.01D-05 OVMax= 2.55D-03

 Cycle   6  Pass 1  IDiag  1:
 E= -230.660761360291     Delta-E=       -0.000018550389 Rises=F Damp=F
 DIIS: error= 2.04D-04 at cycle   6 NSaved=   6.
 NSaved= 6 IEnMin= 6 EnMin= -230.660761360291     IErMin= 6 ErrMin= 2.04D-04
 ErrMax= 2.04D-04 EMaxC= 1.00D-01 BMatC= 4.82D-07 BMatP= 3.76D-06
 IDIUse=3 WtCom= 9.98D-01 WtEn= 2.04D-03
 Coeff-Com: -0.275D-02 0.375D-02 0.397D-01 0.148D+00-0.104D+01 0.186D+01
 Coeff-En:   0.000D+00 0.000D+00 0.000D+00 0.000D+00 0.000D+00 0.100D+01
 Coeff:     -0.275D-02 0.374D-02 0.397D-01 0.148D+00-0.104D+01 0.185D+01
 Gap=     0.382 Goal=   None    Shift=    0.000
 RMSDP=2.48D-05 MaxDP=3.83D-04 DE=-1.86D-05 OVMax= 1.83D-03

 Cycle   7  Pass 1  IDiag  1:
 E= -230.660765730101     Delta-E=       -0.000004369810 Rises=F Damp=F
 DIIS: error= 5.93D-05 at cycle   7 NSaved=   7.
 NSaved= 7 IEnMin= 7 EnMin= -230.660765730101     IErMin= 7 ErrMin= 5.93D-05
 ErrMax= 5.93D-05 EMaxC= 1.00D-01 BMatC= 4.49D-08 BMatP= 4.82D-07
 IDIUse=1 WtCom= 1.00D+00 WtEn= 0.00D+00
 Coeff-Com:  0.512D-03-0.713D-03-0.903D-02-0.252D-01 0.238D+00-0.776D+00
 Coeff-Com:  0.157D+01
 Coeff:      0.512D-03-0.713D-03-0.903D-02-0.252D-01 0.238D+00-0.776D+00
 Coeff:      0.157D+01
 Gap=     0.382 Goal=   None    Shift=    0.000
 RMSDP=1.15D-05 MaxDP=3.00D-04 DE=-4.37D-06 OVMax= 7.01D-04

 Cycle   8  Pass 1  IDiag  1:
 E= -230.660766136776     Delta-E=       -0.000000406675 Rises=F Damp=F
 DIIS: error= 3.37D-06 at cycle   8 NSaved=   8.
 NSaved= 8 IEnMin= 8 EnMin= -230.660766136776     IErMin= 8 ErrMin= 3.37D-06
 ErrMax= 3.37D-06 EMaxC= 1.00D-01 BMatC= 5.66D-10 BMatP= 4.49D-08
 IDIUse=1 WtCom= 1.00D+00 WtEn= 0.00D+00
 Coeff-Com: -0.284D-04 0.437D-04 0.712D-03 0.117D-02-0.179D-01 0.101D+00
 Coeff-Com: -0.325D+00 0.124D+01
 Coeff:     -0.284D-04 0.437D-04 0.712D-03 0.117D-02-0.179D-01 0.101D+00
 Coeff:     -0.325D+00 0.124D+01
 Gap=     0.382 Goal=   None    Shift=    0.000
 RMSDP=2.34D-06 MaxDP=7.42D-05 DE=-4.07D-07 OVMax= 4.41D-05

 Cycle   9  Pass 1  IDiag  1:
 E= -230.660766139057     Delta-E=       -0.000000002282 Rises=F Damp=F
 DIIS: error= 3.72D-07 at cycle   9 NSaved=   9.
 NSaved= 9 IEnMin= 9 EnMin= -230.660766139057     IErMin= 9 ErrMin= 3.72D-07
 ErrMax= 3.72D-07 EMaxC= 1.00D-01 BMatC= 1.86D-11 BMatP= 5.66D-10
 IDIUse=1 WtCom= 1.00D+00 WtEn= 0.00D+00
 Coeff-Com: -0.214D-04 0.313D-04 0.359D-03 0.101D-02-0.975D-02 0.345D-01
 Coeff-Com: -0.717D-01 0.755D-01 0.970D+00
 Coeff:     -0.214D-04 0.313D-04 0.359D-03 0.101D-02-0.975D-02 0.345D-01
 Coeff:     -0.717D-01 0.755D-01 0.970D+00
 Gap=     0.382 Goal=   None    Shift=    0.000
 RMSDP=2.92D-07 MaxDP=5.85D-06 DE=-2.28D-09 OVMax= 2.05D-06

 Cycle  10  Pass 1  IDiag  1:
 E= -230.660766139088     Delta-E=       -0.000000000031 Rises=F Damp=F
 DIIS: error= 1.42D-07 at cycle  10 NSaved=  10.
 NSaved=10 IEnMin=10 EnMin= -230.660766139088     IErMin=10 ErrMin= 1.42D-07
 ErrMax= 1.42D-07 EMaxC= 1.00D-01 BMatC= 2.25D-12 BMatP= 1.86D-11
 IDIUse=1 WtCom= 1.00D+00 WtEn= 0.00D+00
 Coeff-Com: -0.326D-05 0.503D-05 0.307D-04 0.138D-03-0.996D-03 0.151D-02
 Coeff-Com:  0.327D-02-0.518D-01 0.192D+00 0.855D+00
 Coeff:     -0.326D-05 0.503D-05 0.307D-04 0.138D-03-0.996D-03 0.151D-02
 Coeff:      0.327D-02-0.518D-01 0.192D+00 0.855D+00
 Gap=     0.382 Goal=   None    Shift=    0.000
 RMSDP=5.69D-08 MaxDP=1.51D-06 DE=-3.06D-11 OVMax= 5.03D-07

 Cycle  11  Pass 1  IDiag  1:
 E= -230.660766139089     Delta-E=       -0.000000000001 Rises=F Damp=F
 DIIS: error= 5.86D-08 at cycle  11 NSaved=  11.
 NSaved=11 IEnMin=11 EnMin= -230.660766139089     IErMin=11 ErrMin= 5.86D-08
 ErrMax= 5.86D-08 EMaxC= 1.00D-01 BMatC= 1.59D-13 BMatP= 2.25D-12
 IDIUse=1 WtCom= 1.00D+00 WtEn= 0.00D+00
 Coeff-Com:  0.200D-05-0.280D-05-0.387D-04-0.105D-03 0.103D-02-0.377D-02
 Coeff-Com:  0.802D-02-0.121D-01-0.944D-01 0.412D-01 0.106D+01
 Coeff:      0.200D-05-0.280D-05-0.387D-04-0.105D-03 0.103D-02-0.377D-02
 Coeff:      0.802D-02-0.121D-01-0.944D-01 0.412D-01 0.106D+01
 Gap=     0.382 Goal=   None    Shift=    0.000
 RMSDP=1.63D-08 MaxDP=3.47D-07 DE=-1.25D-12 OVMax= 2.62D-07

 Cycle  12  Pass 1  IDiag  1:
 E= -230.660766139089     Delta-E=        0.000000000000 Rises=F Damp=F
 DIIS: error= 1.37D-08 at cycle  12 NSaved=  12.
 NSaved=12 IEnMin=11 EnMin= -230.660766139089     IErMin=12 ErrMin= 1.37D-08
 ErrMax= 1.37D-08 EMaxC= 1.00D-01 BMatC= 6.58D-15 BMatP= 1.59D-13
 IDIUse=1 WtCom= 1.00D+00 WtEn= 0.00D+00
 Coeff-Com:  0.280D-06-0.430D-06-0.363D-05-0.124D-04 0.108D-03-0.325D-03
 Coeff-Com:  0.517D-03 0.533D-03-0.110D-01-0.240D-01 0.573D-01 0.977D+00
 Coeff:      0.280D-06-0.430D-06-0.363D-05-0.124D-04 0.108D-03-0.325D-03
 Coeff:      0.517D-03 0.533D-03-0.110D-01-0.240D-01 0.573D-01 0.977D+00
 Gap=     0.382 Goal=   None    Shift=    0.000
 RMSDP=3.32D-09 MaxDP=5.73D-08 DE= 2.27D-13 OVMax= 4.43D-08

 SCF Done:  E(RHF) =  -230.660766139     A.U. after   12 cycles
             Convg  =    0.3321D-08             -V/T =  2.0012
 KE= 2.303741370342D+02 PE=-9.419027516217D+02 EE= 2.781515059984D+02
 Leave Link  502 at Fri Dec  3 11:35:01 2021, MaxMem=  498073600 cpu:      53.0
 (Enter /apps/software//g09/l801.exe)
 ExpMin= 3.60D-02 ExpMax= 4.56D+03 ExpMxC= 6.82D+02 IAcc=3 IRadAn=         5 AccDes= 0.00D+00
 HarFok:  IExCor=  205 AccDes= 0.00D+00 IRadAn=         5 IDoV=-2
 ScaDFX=  1.000000  1.000000  1.000000  1.000000
 Largest valence mixing into a core orbital is  1.54D-04
 Largest core mixing into a valence orbital is  3.91D-05
 Range of M.O.s used for correlation:     7   174
 NBasis=   174 NAE=    21 NBE=    21 NFC=     6 NFV=     0
 NROrb=    168 NOA=    15 NOB=    15 NVA=   153 NVB=   153

 **** Warning!!: The largest alpha MO coefficient is  0.22624760D+03

 Leave Link  801 at Fri Dec  3 11:35:01 2021, MaxMem=  498073600 cpu:       1.2
 (Enter /apps/software//g09/l906.exe)
 Frozen-core derivative calculation, NFC=   6 NFV=   0.
 FulOut=F Deriv=T AODrv=F NAtomX=    12
   MMem=         327  MDisk=          15 MDiskD=          15
  W3Min=      657720 MinDsk=     1009670 NBas6D=         180
 NBas2D=       16542    NTT=       16290    LW2=     2040000
    MDV=   497687745 MDiskM=       38247 NBas2p=        8410
 Fully in-core method, ICMem=   280919484.
 IMap=   1   2   3   4   5   6   7   8   9  10  11  12  13  14  15  16  17  18  19  20
 IMap=  21
 JobTyp=1 Pass  1 fully in-core, NPsUse=  6.
 Compute canonical integrals, IntTyp=   4.
 Symmetry not used in FoFDir.
 MinBra= 0 MaxBra= 2 Meth= 1.
 IRaf=       0 NMat=   1 IRICut=       1 DoRegI=T DoRafI=F ISym2E= 0 JSym2E=0.
 Spin components of T(2) and E(2):
     alpha-alpha T2 =       0.4354369861D-01 E2=     -0.1094626249D+00
     alpha-beta  T2 =       0.2291848702D+00 E2=     -0.6209652911D+00
     beta-beta   T2 =       0.4354369861D-01 E2=     -0.1094626249D+00
 The integrals were generated   1 times.
 ANorm=    0.1147289095D+01
 E2 =    -0.8398905408D+00 EUMP2 =    -0.23150065667991D+03
 Leave Link  906 at Fri Dec  3 11:35:26 2021, MaxMem=  498073600 cpu:     148.8
 (Enter /apps/software//g09/l1002.exe)
 Minotr:  Closed shell wavefunction.
          Computing MP2/KS-MP2 derivatives.
          Using Z-Vector for PSCF gradient.
          Skipping F1 and S1 gradient terms here.
          Frozen-core window.
          Direct CPHF calculation.
          Differentiating once with respect to electric field.
                with respect to dipole field.
          Electric field/nuclear overlap derivatives assumed to be zero.
          Using symmetry in CPHF.
          Requested convergence is 1.0D-10 RMS, and 1.0D-09 maximum.
          NewPWx=F KeepS1=T KeepF1=T KeepIn=T MapXYZ=F SortEE=F KeepMc=T.
          MDV=     498073500 using IRadAn=       0.
          Keep R1 ints in memory in canonical form, NReq=133512102.
 Symmetry not used in FoFDir.
 MinBra= 0 MaxBra= 2 Meth= 1.
 IRaf=       0 NMat=   1 IRICut=       1 DoRegI=T DoRafI=F ISym2E= 0 JSym2E=0.
          Solving linear equations separately, MaxMat=       0.
          There are     1 degrees of freedom in the 1st order CPHF.  IDoFFX=0.
 LinEq1:  Iter=  0 NonCon=     1 RMS=3.71D-03 Max=7.40D-02
 AX will form     1 AO Fock derivatives at one time.
 LinEq1:  Iter=  1 NonCon=     1 RMS=9.71D-04 Max=1.69D-02
 LinEq1:  Iter=  2 NonCon=     1 RMS=3.97D-04 Max=8.78D-03
 LinEq1:  Iter=  3 NonCon=     1 RMS=1.13D-04 Max=1.98D-03
 LinEq1:  Iter=  4 NonCon=     1 RMS=2.50D-05 Max=4.24D-04
 LinEq1:  Iter=  5 NonCon=     1 RMS=2.97D-06 Max=5.62D-05
 LinEq1:  Iter=  6 NonCon=     1 RMS=2.68D-07 Max=3.02D-06
 LinEq1:  Iter=  7 NonCon=     1 RMS=4.31D-08 Max=5.22D-07
 LinEq1:  Iter=  8 NonCon=     1 RMS=1.01D-08 Max=1.88D-07
 LinEq1:  Iter=  9 NonCon=     1 RMS=4.22D-09 Max=8.64D-08
 LinEq1:  Iter= 10 NonCon=     1 RMS=6.99D-10 Max=7.59D-09
 LinEq1:  Iter= 11 NonCon=     1 RMS=1.65D-10 Max=3.13D-09
 LinEq1:  Iter= 12 NonCon=     0 RMS=4.51D-11 Max=4.22D-10
 Linear equations converged to 1.000D-10 1.000D-09 after    12 iterations.
 End of Minotr Frequency-dependent properties file   721 does not exist.
 End of Minotr Frequency-dependent properties file   722 does not exist.
 Leave Link 1002 at Fri Dec  3 11:35:32 2021, MaxMem=  498073600 cpu:      36.5
 (Enter /apps/software//g09/l601.exe)
 Copying SCF densities to generalized density rwf, IOpCl= 0 IROHF=0.

 **********************************************************************

            Population analysis using the MP2 density.

 **********************************************************************

 Orbital symmetries:
       Occupied  (A1) (B2) (A1) (A1) (B2) (B2) (A1) (B2) (A1) (A1)
                 (B2) (A1) (B2) (A1) (B2) (A1) (B1) (A1) (B2) (A2)
                 (B1)
       Virtual   (A1) (B2) (A1) (A1) (B2) (B2) (B1) (A2) (B1) (A2)
                 (B1) (A1) (A1) (B2) (A1) (B2) (A1) (A1) (A2) (B1)
                 (A2) (A1) (B2) (B2) (B2) (A1) (A1) (B2) (A1) (B2)
                 (B2) (A1) (B2) (A2) (B2) (A1) (A1) (B2) (B2) (A1)
                 (B2) (A1) (B2) (A1) (A1) (B2) (B1) (A1) (B2) (A1)
                 (B2) (B1) (A2) (B2) (A1) (B1) (A2) (A2) (A1) (B2)
                 (A1) (B2) (A1) (B2) (A1) (B2) (A1) (B2) (B2) (A1)
                 (B2) (B2) (B1) (A1) (B2) (B1) (A2) (B1) (B1) (A2)
                 (A1) (B2) (A1) (B2) (A1) (A1) (A2) (B1) (A2) (B2)
                 (A1) (A1) (B2) (B1) (B1) (A2) (A1) (B2) (B2) (B1)
                 (A2) (A1) (A1) (B2) (B2) (A1) (B2) (A2) (B1) (A2)
                 (B2) (A1) (A1) (B2) (A1) (B2) (A2) (A1) (B2) (A1)
                 (B1) (B2) (A1) (B1) (A2) (A1) (B2) (B2) (A2) (B1)
                 (A1) (B2) (A2) (B2) (A1) (B2) (A1) (A1) (B2) (A1)
                 (B2) (A1) (B2) (B2) (A1) (B2) (B2) (A1) (A1) (B2)
                 (A1) (B2) (B2)
 The electronic state is 1-A1.
 Alpha  occ. eigenvalues --  -11.24603 -11.24551 -11.24551 -11.24428 -11.24427
 Alpha  occ. eigenvalues --  -11.24373  -1.15040  -1.02196  -1.02195  -0.83517
 Alpha  occ. eigenvalues --   -0.83517  -0.73681  -0.63335  -0.60448  -0.58916
 Alpha  occ. eigenvalues --   -0.58915  -0.49990  -0.47304  -0.47302  -0.33996
 Alpha  occ. eigenvalues --   -0.33996
 Alpha virt. eigenvalues --    0.04178   0.04889   0.04889   0.06694   0.06694
 Alpha virt. eigenvalues --    0.08904   0.10449   0.10450   0.12886   0.15284
 Alpha virt. eigenvalues --    0.15284   0.15310   0.16122   0.17150   0.17150
 Alpha virt. eigenvalues --    0.18809   0.18809   0.19062   0.20921   0.21418
 Alpha virt. eigenvalues --    0.21419   0.21492   0.21492   0.22063   0.22597
 Alpha virt. eigenvalues --    0.22598   0.24999   0.25000   0.28654   0.28654
 Alpha virt. eigenvalues --    0.29940   0.32736   0.33571   0.36110   0.36180
 Alpha virt. eigenvalues --    0.36181   0.43958   0.43960   0.44595   0.48273
 Alpha virt. eigenvalues --    0.48274   0.52091   0.52093   0.58748   0.66952
 Alpha virt. eigenvalues --    0.66959   0.71302   0.73183   0.73183   0.75574
 Alpha virt. eigenvalues --    0.75575   0.75723   0.75724   0.76117   0.79358
 Alpha virt. eigenvalues --    0.81650   0.81650   0.88306   0.89935   0.89936
 Alpha virt. eigenvalues --    0.95504   0.95505   0.96355   1.00868   1.01382
 Alpha virt. eigenvalues --    1.01383   1.06294   1.06294   1.06696   1.14016
 Alpha virt. eigenvalues --    1.14016   1.15039   1.15453   1.20691   1.20691
 Alpha virt. eigenvalues --    1.23971   1.31184   1.31186   1.40556   1.40557
 Alpha virt. eigenvalues --    1.47298   1.53398   1.59611   1.71174   1.71179
 Alpha virt. eigenvalues --    1.74807   1.78390   1.78390   1.79863   1.91678
 Alpha virt. eigenvalues --    1.91680   1.95448   1.95454   1.98987   2.05058
 Alpha virt. eigenvalues --    2.05059   2.11729   2.11730   2.13768   2.16805
 Alpha virt. eigenvalues --    2.16807   2.17375   2.20206   2.20206   2.31940
 Alpha virt. eigenvalues --    2.39939   2.39941   2.46877   2.47217   2.47219
 Alpha virt. eigenvalues --    2.52161   2.52162   2.71363   2.75204   2.79517
 Alpha virt. eigenvalues --    2.79524   2.82105   2.87661   2.91781   2.91782
 Alpha virt. eigenvalues --    3.05130   3.05697   3.05700   3.18842   3.18842
 Alpha virt. eigenvalues --    3.20093   3.20094   3.21677   3.29665   3.29665
 Alpha virt. eigenvalues --    3.36287   3.36289   3.46342   3.48223   3.49608
 Alpha virt. eigenvalues --    3.68575   3.68577   3.81251   3.94328   3.94331
 Alpha virt. eigenvalues --    3.98423   4.34755   4.34757   4.52755   4.54467
 Alpha virt. eigenvalues --    4.54467   5.22574  24.69254  25.05388  25.05390
 Alpha virt. eigenvalues --   25.39691  25.39697  25.45293
          Condensed to atoms (all electrons):
              1          2          3          4          5          6
     1  C    8.768890  -3.033986   1.666234  -1.628537   1.666593  -1.536738
     2  C   -3.033986   8.768569  -1.536287   1.666234  -1.628559   1.666384
     3  C    1.666234  -1.536287   8.768569  -3.033986   1.666384  -1.628559
     4  C   -1.628537   1.666234  -3.033986   8.768890  -1.536738   1.666593
     5  C    1.666593  -1.628559   1.666384  -1.536738   8.768951  -3.034247
     6  C   -1.536738   1.666384  -1.628559   1.666593  -3.034247   8.768951
     7  H    0.476073  -0.151029   0.023598  -0.005087   0.081702  -0.156074
     8  H   -0.151023   0.476070  -0.156093   0.081697  -0.005088   0.023606
     9  H    0.081697  -0.156093   0.476070  -0.151023   0.023606  -0.005088
    10  H   -0.005087   0.023598  -0.151029   0.476073  -0.156074   0.081702
    11  H    0.023623  -0.005092   0.081708  -0.156144   0.476122  -0.151055
    12  H   -0.156144   0.081708  -0.005092   0.023623  -0.151055   0.476122
              7          8          9         10         11         12
     1  C    0.476073  -0.151023   0.081697  -0.005087   0.023623  -0.156144
     2  C   -0.151029   0.476070  -0.156093   0.023598  -0.005092   0.081708
     3  C    0.023598  -0.156093   0.476070  -0.151029   0.081708  -0.005092
     4  C   -0.005087   0.081697  -0.151023   0.476073  -0.156144   0.023623
     5  C    0.081702  -0.005088   0.023606  -0.156074   0.476122  -0.151055
     6  C   -0.156074   0.023606  -0.005088   0.081702  -0.151055   0.476122
     7  H    0.597168  -0.009141  -0.000683   0.000875  -0.000683  -0.028292
     8  H   -0.009141   0.597191  -0.028295  -0.000683   0.000876  -0.000683
     9  H   -0.000683  -0.028295   0.597191  -0.009141  -0.000683   0.000876
    10  H    0.000875  -0.000683  -0.009141   0.597168  -0.028292  -0.000683
    11  H   -0.000683   0.000876  -0.000683  -0.028292   0.597197  -0.009145
    12  H   -0.028292  -0.000683   0.000876  -0.000683  -0.009145   0.597197
 Mulliken atomic charges:
              1
     1  C   -0.171595
     2  C   -0.171517
     3  C   -0.171517
     4  C   -0.171595
     5  C   -0.171597
     6  C   -0.171597
     7  H    0.171573
     8  H    0.171567
     9  H    0.171567
    10  H    0.171573
    11  H    0.171569
    12  H    0.171569
 Sum of Mulliken atomic charges =   0.00000
 Mulliken charges with hydrogens summed into heavy atoms:
              1
     1  C   -0.000022
     2  C    0.000050
     3  C    0.000050
     4  C   -0.000022
     5  C   -0.000027
     6  C   -0.000027
 Sum of Mulliken charges with hydrogens summed into heavy atoms =   0.00000
 Electronic spatial extent (au):  <R**2>=            463.6186
 Charge=              0.0000 electrons
 Dipole moment (field-independent basis, Debye):
    X=              0.0000    Y=              0.0000    Z=             -0.0001  Tot=              0.0001
 Quadrupole moment (field-independent basis, Debye-Ang):
   XX=            -40.9337   YY=            -33.2782   ZZ=            -33.2791
   XY=              0.0000   XZ=              0.0000   YZ=              0.0000
 Traceless Quadrupole moment (field-independent basis, Debye-Ang):
   XX=             -5.1034   YY=              2.5521   ZZ=              2.5512
   XY=              0.0000   XZ=              0.0000   YZ=              0.0000
 Octapole moment (field-independent basis, Debye-Ang**2):
  XXX=              0.0000  YYY=              0.0000  ZZZ=              8.6929  XYY=              0.0000
  XXY=              0.0000  XXZ=             -0.0001  XZZ=              0.0000  YZZ=              0.0000
  YYZ=             -8.6947  XYZ=              0.0000
 Hexadecapole moment (field-independent basis, Debye-Ang**3):
 XXXX=            -51.5653 YYYY=           -290.8402 ZZZZ=           -290.8281 XXXY=              0.0000
 XXXZ=              0.0000 YYYX=              0.0000 YYYZ=              0.0000 ZZZX=              0.0000
 ZZZY=              0.0000 XXYY=            -66.9244 XXZZ=            -66.9209 YYZZ=            -96.9454
 XXYZ=              0.0000 YYXZ=              0.0000 ZZXY=              0.0000
 N-N= 2.027163424500D+02 E-N=-9.427759579336D+02  KE= 2.314201884076D+02
 Symmetry A1   KE= 1.148589325107D+02
 Symmetry A2   KE= 2.331991432174D+00
 Symmetry B1   KE= 4.062068206292D+00
 Symmetry B2   KE= 1.101671962585D+02
 No NMR shielding tensors so no spin-rotation constants.
 Leave Link  601 at Fri Dec  3 11:35:32 2021, MaxMem=  498073600 cpu:       2.0
 (Enter /apps/software//g09/l9999.exe)
 1\1\GINC-DLT06\SP\RMP2-FC\6-311++G(d,p)\C6H6\ITAMAR\03-Dec-2021\0\\#P 
 MP2/6-311++G** DENSITY=MP2\\Clamp-20\\0,1\C,0,0.023822,1.4082,0.\C,0,1
 .207564,0.724681,0.\C,0,1.207564,-0.724681,0.\C,0,0.023822,-1.4082,0.\
 C,0,-1.231347,-0.683446,0.\C,0,-1.231347,0.683446,0.\H,0,-0.346819,2.4
 26379,0.\H,0,2.274643,0.912837,0.\H,0,2.274643,-0.912837,0.\H,0,-0.346
 819,-2.426379,0.\H,0,-1.927863,-1.513436,0.\H,0,-1.927863,1.513436,0.\
 \Version=EM64L-G09RevA.02\State=1-A1\HF=-230.6607661\MP2=-231.5006567\
 RMSD=3.321e-09\Dipole=-0.0000468,0.,0.\Quadrupole=1.8967908,1.8974584,
 -3.7942492,0.,0.,0.\PG=C02V [SGV(C6H6)]\\@


 SIC AS THE CAWSE OF EWERY THING IS, SIC WILBE THE EFFECT.
 -- PROVERBS AND REASONS OF THE YEAR 1585
           AS REPRINTED IN PAISLEY MAGAZINE 1828.
 Job cpu time:  0 days  0 hours  4 minutes  7.2 seconds.
 File lengths (MBytes):  RWF=     14 Int=      0 D2E=      0 Chk=      4 Scr=      1
 Normal termination of Gaussian 09 at Fri Dec  3 11:35:32 2021.
