Clamp-20                                                                
SP        RMP2-FC                                                     6-311++G(d,p)       
Number of atoms                            I               12
Info1-9                                    I   N=           9
          19          19           0           0           0         110
           1           2           1
Full Title                                 C   N=           1
Clamp-20    
Route                                      C   N=           3
#P MP2/6-311++G** nosymm Density=MP2
Charge                                     I                0
Multiplicity                               I                1
Number of electrons                        I               42
Number of alpha electrons                  I               21
Number of beta electrons                   I               21
Number of basis functions                  I              174
Number of independent functions            I              174
Number of point charges in /Mol/           I                0
Number of translation vectors              I                0
Atomic numbers                             I   N=          12
           6           6           6           6           6           6
           1           1           1           1           1           1
Nuclear charges                            R   N=          12
  6.00000000E+00  6.00000000E+00  6.00000000E+00  6.00000000E+00  6.00000000E+00
  6.00000000E+00  1.00000000E+00  1.00000000E+00  1.00000000E+00  1.00000000E+00
  1.00000000E+00  1.00000000E+00
Current cartesian coordinates              R   N=          36
  2.66111254E+00  4.49995191E-02  0.00000000E+00  1.36944871E+00  2.28194787E+00
  0.00000000E+00 -1.36944871E+00  2.28194787E+00  0.00000000E+00 -2.66111254E+00
  4.49995191E-02  0.00000000E+00 -1.29152586E+00 -2.32692632E+00  0.00000000E+00
  1.29152586E+00 -2.32692632E+00  0.00000000E+00  4.58519212E+00 -6.55410518E-01
  0.00000000E+00  1.72501206E+00  4.29843509E+00  0.00000000E+00 -1.72501206E+00
  4.29843509E+00  0.00000000E+00 -4.58519212E+00 -6.55410518E-01  0.00000000E+00
 -2.85997977E+00 -3.64315090E+00  0.00000000E+00  2.85997977E+00 -3.64315090E+00
  0.00000000E+00
Number of symbols in /Mol/                 I                0
Force Field                                I                0
Atom Types                                 C   N=          12
                                                            
                                                            
                        
Int Atom Types                             I   N=          12
           0           0           0           0           0           0
           0           0           0           0           0           0
MM charges                                 R   N=          12
  0.00000000E+00  0.00000000E+00  0.00000000E+00  0.00000000E+00  0.00000000E+00
  0.00000000E+00  0.00000000E+00  0.00000000E+00  0.00000000E+00  0.00000000E+00
  0.00000000E+00  0.00000000E+00
Integer atomic weights                     I   N=          12
          12          12          12          12          12          12
           1           1           1           1           1           1
Real atomic weights                        R   N=          12
  1.20000000E+01  1.20000000E+01  1.20000000E+01  1.20000000E+01  1.20000000E+01
  1.20000000E+01  1.00782504E+00  1.00782504E+00  1.00782504E+00  1.00782504E+00
  1.00782504E+00  1.00782504E+00
Atom fragment info                         I   N=          12
           0           0           0           0           0           0
           0           0           0           0           0           0
Atom residue num                           I   N=          12
           0           0           0           0           0           0
           0           0           0           0           0           0
Nuclear spins                              I   N=          12
           0           0           0           0           0           0
           1           1           1           1           1           1
Nuclear ZEff                               R   N=          12
 -3.60000000E+00 -3.60000000E+00 -3.60000000E+00 -3.60000000E+00 -3.60000000E+00
 -3.60000000E+00 -1.00000000E+00 -1.00000000E+00 -1.00000000E+00 -1.00000000E+00
 -1.00000000E+00 -1.00000000E+00
Nuclear ZNuc                               R   N=          12
  6.00000000E+00  6.00000000E+00  6.00000000E+00  6.00000000E+00  6.00000000E+00
  6.00000000E+00  1.00000000E+00  1.00000000E+00  1.00000000E+00  1.00000000E+00
  1.00000000E+00  1.00000000E+00
Nuclear QMom                               R   N=          12
  0.00000000E+00  0.00000000E+00  0.00000000E+00  0.00000000E+00  0.00000000E+00
  0.00000000E+00  0.00000000E+00  0.00000000E+00  0.00000000E+00  0.00000000E+00
  0.00000000E+00  0.00000000E+00
Nuclear GFac                               R   N=          12
  0.00000000E+00  0.00000000E+00  0.00000000E+00  0.00000000E+00  0.00000000E+00
  0.00000000E+00  2.79284600E+00  2.79284600E+00  2.79284600E+00  2.79284600E+00
  2.79284600E+00  2.79284600E+00
MicOpt                                     I   N=          12
          -1          -1          -1          -1          -1          -1
          -1          -1          -1          -1          -1          -1
Number of residues                         I                0
Number of secondary structures             I                0
Number of contracted shells                I               66
Number of primitive shells                 I              120
Pure/Cartesian d shells                    I                0
Pure/Cartesian f shells                    I                0
Highest angular momentum                   I                2
Largest degree of contraction              I                6
Shell types                                I   N=          66
           0          -1          -1          -1          -1          -2
           0          -1          -1          -1          -1          -2
           0          -1          -1          -1          -1          -2
           0          -1          -1          -1          -1          -2
           0          -1          -1          -1          -1          -2
           0          -1          -1          -1          -1          -2
           0           0           0           0           1           0
           0           0           0           1           0           0
           0           0           1           0           0           0
           0           1           0           0           0           0
           1           0           0           0           0           1
Number of primitives per shell             I   N=          66
           6           3           1           1           1           1
           6           3           1           1           1           1
           6           3           1           1           1           1
           6           3           1           1           1           1
           6           3           1           1           1           1
           6           3           1           1           1           1
           3           1           1           1           1           3
           1           1           1           1           3           1
           1           1           1           3           1           1
           1           1           3           1           1           1
           1           3           1           1           1           1
Shell to atom map                          I   N=          66
           1           1           1           1           1           1
           2           2           2           2           2           2
           3           3           3           3           3           3
           4           4           4           4           4           4
           5           5           5           5           5           5
           6           6           6           6           6           6
           7           7           7           7           7           8
           8           8           8           8           9           9
           9           9           9          10          10          10
          10          10          11          11          11          11
          11          12          12          12          12          12
Primitive exponents                        R   N=         120
  4.56324000E+03  6.82024000E+02  1.54973000E+02  4.44553000E+01  1.30290000E+01
  1.82773000E+00  2.09642000E+01  4.80331000E+00  1.45933000E+00  4.83456000E-01
  1.45585000E-01  4.38000000E-02  6.26000000E-01  4.56324000E+03  6.82024000E+02
  1.54973000E+02  4.44553000E+01  1.30290000E+01  1.82773000E+00  2.09642000E+01
  4.80331000E+00  1.45933000E+00  4.83456000E-01  1.45585000E-01  4.38000000E-02
  6.26000000E-01  4.56324000E+03  6.82024000E+02  1.54973000E+02  4.44553000E+01
  1.30290000E+01  1.82773000E+00  2.09642000E+01  4.80331000E+00  1.45933000E+00
  4.83456000E-01  1.45585000E-01  4.38000000E-02  6.26000000E-01  4.56324000E+03
  6.82024000E+02  1.54973000E+02  4.44553000E+01  1.30290000E+01  1.82773000E+00
  2.09642000E+01  4.80331000E+00  1.45933000E+00  4.83456000E-01  1.45585000E-01
  4.38000000E-02  6.26000000E-01  4.56324000E+03  6.82024000E+02  1.54973000E+02
  4.44553000E+01  1.30290000E+01  1.82773000E+00  2.09642000E+01  4.80331000E+00
  1.45933000E+00  4.83456000E-01  1.45585000E-01  4.38000000E-02  6.26000000E-01
  4.56324000E+03  6.82024000E+02  1.54973000E+02  4.44553000E+01  1.30290000E+01
  1.82773000E+00  2.09642000E+01  4.80331000E+00  1.45933000E+00  4.83456000E-01
  1.45585000E-01  4.38000000E-02  6.26000000E-01  3.38650000E+01  5.09479000E+00
  1.15879000E+00  3.25840000E-01  1.02741000E-01  3.60000000E-02  7.50000000E-01
  3.38650000E+01  5.09479000E+00  1.15879000E+00  3.25840000E-01  1.02741000E-01
  3.60000000E-02  7.50000000E-01  3.38650000E+01  5.09479000E+00  1.15879000E+00
  3.25840000E-01  1.02741000E-01  3.60000000E-02  7.50000000E-01  3.38650000E+01
  5.09479000E+00  1.15879000E+00  3.25840000E-01  1.02741000E-01  3.60000000E-02
  7.50000000E-01  3.38650000E+01  5.09479000E+00  1.15879000E+00  3.25840000E-01
  1.02741000E-01  3.60000000E-02  7.50000000E-01  3.38650000E+01  5.09479000E+00
  1.15879000E+00  3.25840000E-01  1.02741000E-01  3.60000000E-02  7.50000000E-01
Contraction coefficients                   R   N=         120
  1.96665025E-03  1.52306019E-02  7.61269097E-02  2.60801033E-01  6.16462078E-01
  2.21006028E-01  1.14660081E-01  9.19999648E-01 -3.03068213E-03  1.00000000E+00
  1.00000000E+00  1.00000000E+00  1.00000000E+00  1.96665025E-03  1.52306019E-02
  7.61269097E-02  2.60801033E-01  6.16462078E-01  2.21006028E-01  1.14660081E-01
  9.19999648E-01 -3.03068213E-03  1.00000000E+00  1.00000000E+00  1.00000000E+00
  1.00000000E+00  1.96665025E-03  1.52306019E-02  7.61269097E-02  2.60801033E-01
  6.16462078E-01  2.21006028E-01  1.14660081E-01  9.19999648E-01 -3.03068213E-03
  1.00000000E+00  1.00000000E+00  1.00000000E+00  1.00000000E+00  1.96665025E-03
  1.52306019E-02  7.61269097E-02  2.60801033E-01  6.16462078E-01  2.21006028E-01
  1.14660081E-01  9.19999648E-01 -3.03068213E-03  1.00000000E+00  1.00000000E+00
  1.00000000E+00  1.00000000E+00  1.96665025E-03  1.52306019E-02  7.61269097E-02
  2.60801033E-01  6.16462078E-01  2.21006028E-01  1.14660081E-01  9.19999648E-01
 -3.03068213E-03  1.00000000E+00  1.00000000E+00  1.00000000E+00  1.00000000E+00
  1.96665025E-03  1.52306019E-02  7.61269097E-02  2.60801033E-01  6.16462078E-01
  2.21006028E-01  1.14660081E-01  9.19999648E-01 -3.03068213E-03  1.00000000E+00
  1.00000000E+00  1.00000000E+00  1.00000000E+00  2.54938145E-02  1.90373109E-01
  8.52161486E-01  1.00000000E+00  1.00000000E+00  1.00000000E+00  1.00000000E+00
  2.54938145E-02  1.90373109E-01  8.52161486E-01  1.00000000E+00  1.00000000E+00
  1.00000000E+00  1.00000000E+00  2.54938145E-02  1.90373109E-01  8.52161486E-01
  1.00000000E+00  1.00000000E+00  1.00000000E+00  1.00000000E+00  2.54938145E-02
  1.90373109E-01  8.52161486E-01  1.00000000E+00  1.00000000E+00  1.00000000E+00
  1.00000000E+00  2.54938145E-02  1.90373109E-01  8.52161486E-01  1.00000000E+00
  1.00000000E+00  1.00000000E+00  1.00000000E+00  2.54938145E-02  1.90373109E-01
  8.52161486E-01  1.00000000E+00  1.00000000E+00  1.00000000E+00  1.00000000E+00
P(S=P) Contraction coefficients            R   N=         120
  0.00000000E+00  0.00000000E+00  0.00000000E+00  0.00000000E+00  0.00000000E+00
  0.00000000E+00  4.02486927E-02  2.37593957E-01  8.15853851E-01  1.00000000E+00
  1.00000000E+00  1.00000000E+00  0.00000000E+00  0.00000000E+00  0.00000000E+00
  0.00000000E+00  0.00000000E+00  0.00000000E+00  0.00000000E+00  4.02486927E-02
  2.37593957E-01  8.15853851E-01  1.00000000E+00  1.00000000E+00  1.00000000E+00
  0.00000000E+00  0.00000000E+00  0.00000000E+00  0.00000000E+00  0.00000000E+00
  0.00000000E+00  0.00000000E+00  4.02486927E-02  2.37593957E-01  8.15853851E-01
  1.00000000E+00  1.00000000E+00  1.00000000E+00  0.00000000E+00  0.00000000E+00
  0.00000000E+00  0.00000000E+00  0.00000000E+00  0.00000000E+00  0.00000000E+00
  4.02486927E-02  2.37593957E-01  8.15853851E-01  1.00000000E+00  1.00000000E+00
  1.00000000E+00  0.00000000E+00  0.00000000E+00  0.00000000E+00  0.00000000E+00
  0.00000000E+00  0.00000000E+00  0.00000000E+00  4.02486927E-02  2.37593957E-01
  8.15853851E-01  1.00000000E+00  1.00000000E+00  1.00000000E+00  0.00000000E+00
  0.00000000E+00  0.00000000E+00  0.00000000E+00  0.00000000E+00  0.00000000E+00
  0.00000000E+00  4.02486927E-02  2.37593957E-01  8.15853851E-01  1.00000000E+00
  1.00000000E+00  1.00000000E+00  0.00000000E+00  0.00000000E+00  0.00000000E+00
  0.00000000E+00  0.00000000E+00  0.00000000E+00  0.00000000E+00  0.00000000E+00
  0.00000000E+00  0.00000000E+00  0.00000000E+00  0.00000000E+00  0.00000000E+00
  0.00000000E+00  0.00000000E+00  0.00000000E+00  0.00000000E+00  0.00000000E+00
  0.00000000E+00  0.00000000E+00  0.00000000E+00  0.00000000E+00  0.00000000E+00
  0.00000000E+00  0.00000000E+00  0.00000000E+00  0.00000000E+00  0.00000000E+00
  0.00000000E+00  0.00000000E+00  0.00000000E+00  0.00000000E+00  0.00000000E+00
  0.00000000E+00  0.00000000E+00  0.00000000E+00  0.00000000E+00  0.00000000E+00
  0.00000000E+00  0.00000000E+00  0.00000000E+00  0.00000000E+00  0.00000000E+00
Coordinates of each shell                  R   N=         198
  2.66111254E+00  4.49995191E-02  0.00000000E+00  2.66111254E+00  4.49995191E-02
  0.00000000E+00  2.66111254E+00  4.49995191E-02  0.00000000E+00  2.66111254E+00
  4.49995191E-02  0.00000000E+00  2.66111254E+00  4.49995191E-02  0.00000000E+00
  2.66111254E+00  4.49995191E-02  0.00000000E+00  1.36944871E+00  2.28194787E+00
  0.00000000E+00  1.36944871E+00  2.28194787E+00  0.00000000E+00  1.36944871E+00
  2.28194787E+00  0.00000000E+00  1.36944871E+00  2.28194787E+00  0.00000000E+00
  1.36944871E+00  2.28194787E+00  0.00000000E+00  1.36944871E+00  2.28194787E+00
  0.00000000E+00 -1.36944871E+00  2.28194787E+00  0.00000000E+00 -1.36944871E+00
  2.28194787E+00  0.00000000E+00 -1.36944871E+00  2.28194787E+00  0.00000000E+00
 -1.36944871E+00  2.28194787E+00  0.00000000E+00 -1.36944871E+00  2.28194787E+00
  0.00000000E+00 -1.36944871E+00  2.28194787E+00  0.00000000E+00 -2.66111254E+00
  4.49995191E-02  0.00000000E+00 -2.66111254E+00  4.49995191E-02  0.00000000E+00
 -2.66111254E+00  4.49995191E-02  0.00000000E+00 -2.66111254E+00  4.49995191E-02
  0.00000000E+00 -2.66111254E+00  4.49995191E-02  0.00000000E+00 -2.66111254E+00
  4.49995191E-02  0.00000000E+00 -1.29152586E+00 -2.32692632E+00  0.00000000E+00
 -1.29152586E+00 -2.32692632E+00  0.00000000E+00 -1.29152586E+00 -2.32692632E+00
  0.00000000E+00 -1.29152586E+00 -2.32692632E+00  0.00000000E+00 -1.29152586E+00
 -2.32692632E+00  0.00000000E+00 -1.29152586E+00 -2.32692632E+00  0.00000000E+00
  1.29152586E+00 -2.32692632E+00  0.00000000E+00  1.29152586E+00 -2.32692632E+00
  0.00000000E+00  1.29152586E+00 -2.32692632E+00  0.00000000E+00  1.29152586E+00
 -2.32692632E+00  0.00000000E+00  1.29152586E+00 -2.32692632E+00  0.00000000E+00
  1.29152586E+00 -2.32692632E+00  0.00000000E+00  4.58519212E+00 -6.55410518E-01
  0.00000000E+00  4.58519212E+00 -6.55410518E-01  0.00000000E+00  4.58519212E+00
 -6.55410518E-01  0.00000000E+00  4.58519212E+00 -6.55410518E-01  0.00000000E+00
  4.58519212E+00 -6.55410518E-01  0.00000000E+00  1.72501206E+00  4.29843509E+00
  0.00000000E+00  1.72501206E+00  4.29843509E+00  0.00000000E+00  1.72501206E+00
  4.29843509E+00  0.00000000E+00  1.72501206E+00  4.29843509E+00  0.00000000E+00
  1.72501206E+00  4.29843509E+00  0.00000000E+00 -1.72501206E+00  4.29843509E+00
  0.00000000E+00 -1.72501206E+00  4.29843509E+00  0.00000000E+00 -1.72501206E+00
  4.29843509E+00  0.00000000E+00 -1.72501206E+00  4.29843509E+00  0.00000000E+00
 -1.72501206E+00  4.29843509E+00  0.00000000E+00 -4.58519212E+00 -6.55410518E-01
  0.00000000E+00 -4.58519212E+00 -6.55410518E-01  0.00000000E+00 -4.58519212E+00
 -6.55410518E-01  0.00000000E+00 -4.58519212E+00 -6.55410518E-01  0.00000000E+00
 -4.58519212E+00 -6.55410518E-01  0.00000000E+00 -2.85997977E+00 -3.64315090E+00
  0.00000000E+00 -2.85997977E+00 -3.64315090E+00  0.00000000E+00 -2.85997977E+00
 -3.64315090E+00  0.00000000E+00 -2.85997977E+00 -3.64315090E+00  0.00000000E+00
 -2.85997977E+00 -3.64315090E+00  0.00000000E+00  2.85997977E+00 -3.64315090E+00
  0.00000000E+00  2.85997977E+00 -3.64315090E+00  0.00000000E+00  2.85997977E+00
 -3.64315090E+00  0.00000000E+00  2.85997977E+00 -3.64315090E+00  0.00000000E+00
  2.85997977E+00 -3.64315090E+00  0.00000000E+00
Num ILSW                                   I              100
ILSW                                       I   N=         100
           0           0           0           0           2           0
           0           0           0           0           0          -1
           5           0           0           0           0           0
           0           0           0           0           0           0
           1           1           0           0           0           0
           0           0      100000           0          -1           0
           0           0           0           0           0           0
           0           0           0           1           0           0
           0 -2000000000           1           0           0           0
           0           0           4          52           0           0
           0           0           0           0           0           0
           0           0           0          12           0           1
           0           0           0           0           0           0
           0           0           0           0           0           0
           0           0           0           0           0           0
           0           0           0           0           0           0
           0           0           0           0
Num RLSW                                   I               52
RLSW                                       R   N=          52
  1.00000000E+00  1.00000000E+00  1.00000000E+00  1.00000000E+00  1.00000000E+00
  0.00000000E+00  0.00000000E+00  1.00000000E+00  0.00000000E+00  0.00000000E+00
  0.00000000E+00  0.00000000E+00  1.00000000E+00  0.00000000E+00  0.00000000E+00
  0.00000000E+00  0.00000000E+00  1.00000000E+00  0.00000000E+00  0.00000000E+00
  0.00000000E+00  0.00000000E+00  1.00000000E+00  0.00000000E+00  0.00000000E+00
  0.00000000E+00  0.00000000E+00  1.00000000E+00  0.00000000E+00  0.00000000E+00
  0.00000000E+00  0.00000000E+00  1.00000000E+00  0.00000000E+00  0.00000000E+00
  0.00000000E+00  0.00000000E+00  0.00000000E+00  1.00000000E+00  1.00000000E+00
  0.00000000E+00  1.00000000E+00  0.00000000E+00  0.00000000E+00  0.00000000E+00
  0.00000000E+00  0.00000000E+00  0.00000000E+00  0.00000000E+00  0.00000000E+00
  0.00000000E+00  0.00000000E+00
MxBond                                     I                3
NBond                                      I   N=          12
           3           3           3           3           3           3
           1           1           1           1           1           1
IBond                                      I   N=          36
           2           6           7           1           3           8
           2           4           9           3           5          10
           4           6          11           1           5          12
           1           0           0           2           0           0
           3           0           0           4           0           0
           5           0           0           6           0           0
RBond                                      R   N=          36
  2.00000000E+00  1.00000000E+00  1.00000000E+00  2.00000000E+00  1.00000000E+00
  1.00000000E+00  1.00000000E+00  2.00000000E+00  1.00000000E+00  2.00000000E+00
  1.00000000E+00  1.00000000E+00  1.00000000E+00  2.00000000E+00  1.00000000E+00
  1.00000000E+00  2.00000000E+00  1.00000000E+00  1.00000000E+00  0.00000000E+00
  0.00000000E+00  1.00000000E+00  0.00000000E+00  0.00000000E+00  1.00000000E+00
  0.00000000E+00  0.00000000E+00  1.00000000E+00  0.00000000E+00  0.00000000E+00
  1.00000000E+00  0.00000000E+00  0.00000000E+00  1.00000000E+00  0.00000000E+00
  0.00000000E+00
Virial Ratio                               R      2.001244199325657E+00
SCF Energy                                 R     -2.306607661217888E+02
MP2 Energy                                 R     -2.315006566768377E+02
Total Energy                               R     -2.315006566768377E+02
Post-SCF wavefunction norm                 R      1.147289107815062E+00
RMS Density                                R      4.075556459569559E-09
Job Status                                 I                1
Nuclear derivative order                   I                0
External E-field                           R   N=          35
  0.00000000E+00  0.00000000E+00  0.00000000E+00  0.00000000E+00  0.00000000E+00
  0.00000000E+00  0.00000000E+00  0.00000000E+00  0.00000000E+00  0.00000000E+00
  0.00000000E+00  0.00000000E+00  0.00000000E+00  0.00000000E+00  0.00000000E+00
  0.00000000E+00  0.00000000E+00  0.00000000E+00  0.00000000E+00  0.00000000E+00
  0.00000000E+00  0.00000000E+00  0.00000000E+00  0.00000000E+00  0.00000000E+00
  0.00000000E+00  0.00000000E+00  0.00000000E+00  0.00000000E+00  0.00000000E+00
  0.00000000E+00  0.00000000E+00  0.00000000E+00  0.00000000E+00  0.00000000E+00
IOpCl                                      I                0
IROHF                                      I                0
Alpha Orbital Energies                     R   N=         174
 -1.12460251E+01 -1.12455127E+01 -1.12455069E+01 -1.12442756E+01 -1.12442697E+01
 -1.12437277E+01 -1.15040418E+00 -1.02195525E+00 -1.02195070E+00 -8.35171988E-01
 -8.35165152E-01 -7.36811366E-01 -6.33353837E-01 -6.04478006E-01 -5.89158291E-01
 -5.89150086E-01 -4.99902136E-01 -4.73039483E-01 -4.73016095E-01 -3.39963771E-01
 -3.39962958E-01  4.17779665E-02  4.88906754E-02  4.88912974E-02  6.69392246E-02
  6.69397826E-02  8.90404723E-02  1.04492863E-01  1.04502215E-01  1.28859796E-01
  1.52841842E-01  1.52842354E-01  1.53103993E-01  1.61217504E-01  1.71497812E-01
  1.71501614E-01  1.88092419E-01  1.88093293E-01  1.90616745E-01  2.09207347E-01
  2.14180088E-01  2.14185265E-01  2.14922237E-01  2.14923132E-01  2.20630763E-01
  2.25974172E-01  2.25975471E-01  2.49994137E-01  2.49996145E-01  2.86537365E-01
  2.86539025E-01  2.99396696E-01  3.27356544E-01  3.35713389E-01  3.61104472E-01
  3.61797852E-01  3.61805703E-01  4.39581636E-01  4.39598576E-01  4.45947146E-01
  4.82734018E-01  4.82739781E-01  5.20914599E-01  5.20925005E-01  5.87477294E-01
  6.69523729E-01  6.69588546E-01  7.13022281E-01  7.31830028E-01  7.31833674E-01
  7.55741488E-01  7.55746474E-01  7.57231947E-01  7.57236254E-01  7.61170779E-01
  7.93580362E-01  8.16497708E-01  8.16501782E-01  8.83058912E-01  8.99354264E-01
  8.99355162E-01  9.55039836E-01  9.55048888E-01  9.63554067E-01  1.00867736E+00
  1.01381918E+00  1.01382531E+00  1.06293961E+00  1.06293972E+00  1.06695556E+00
  1.14015974E+00  1.14016408E+00  1.15039461E+00  1.15453054E+00  1.20690674E+00
  1.20691312E+00  1.23970616E+00  1.31183731E+00  1.31185780E+00  1.40556170E+00
  1.40557492E+00  1.47298043E+00  1.53397978E+00  1.59610906E+00  1.71173984E+00
  1.71178817E+00  1.74806890E+00  1.78390001E+00  1.78390161E+00  1.79863092E+00
  1.91677665E+00  1.91679752E+00  1.95448029E+00  1.95453730E+00  1.98986812E+00
  2.05058129E+00  2.05058684E+00  2.11729468E+00  2.11730143E+00  2.13768383E+00
  2.16805137E+00  2.16807261E+00  2.17375257E+00  2.20205937E+00  2.20206172E+00
  2.31939873E+00  2.39938784E+00  2.39941230E+00  2.46877465E+00  2.47216759E+00
  2.47218527E+00  2.52160583E+00  2.52161712E+00  2.71363227E+00  2.75204008E+00
  2.79517061E+00  2.79523703E+00  2.82104661E+00  2.87661424E+00  2.91780781E+00
  2.91781996E+00  3.05130117E+00  3.05697064E+00  3.05700232E+00  3.18841723E+00
  3.18842417E+00  3.20092776E+00  3.20094226E+00  3.21677093E+00  3.29664999E+00
  3.29665468E+00  3.36287063E+00  3.36289139E+00  3.46342436E+00  3.48222885E+00
  3.49607964E+00  3.68575089E+00  3.68577412E+00  3.81250828E+00  3.94328202E+00
  3.94331055E+00  3.98422612E+00  4.34755430E+00  4.34756612E+00  4.52755294E+00
  4.54466661E+00  4.54466797E+00  5.22573730E+00  2.46925438E+01  2.50538788E+01
  2.50539036E+01  2.53969136E+01  2.53969667E+01  2.54529336E+01
Alpha MO coefficients                      R   N=       30276
  2.30768781E-01  1.91068487E-01 -3.78492803E-05  3.43430142E-05 -1.79836598E-16
  1.98063570E-03 -1.31903457E-04 -1.83879662E-05 -4.74260517E-17 -3.04326995E-04
  2.46042707E-05  9.81758326E-06  1.80066709E-15 -1.97735308E-04 -2.16608630E-04
  1.43534051E-04 -1.21367115E-14 -1.37416376E-04  8.74249303E-18  6.79876431E-16
 -5.73651244E-05 -6.43060491E-05  2.31290614E-01  1.91500380E-01  9.69216480E-06
 -4.96653827E-05  1.25941839E-15  1.98605758E-03 -8.38953806E-05 -1.05644349E-04
 -1.90712801E-15 -3.05361680E-04  2.24634924E-05  1.42429744E-05 -2.54663012E-16
 -1.88046575E-04  8.70517825E-06 -2.60067236E-04  1.11638011E-14 -1.37383446E-04
 -3.07964977E-16  2.67247248E-16 -2.60155931E-05 -8.10653750E-05  2.31290614E-01
  1.91500380E-01 -9.69216480E-06 -4.96653827E-05  1.16714153E-15  1.98605758E-03
  8.38953806E-05 -1.05644349E-04 -1.65919889E-15 -3.05361676E-04 -2.24634931E-05
  1.42429708E-05  2.41108428E-15 -1.88046453E-04 -8.70516412E-06 -2.60067260E-04
 -1.29096191E-14 -1.37383446E-04 -2.47044541E-17 -8.10246074E-17 -2.60155930E-05
  8.10653751E-05  2.30768781E-01  1.91068487E-01  3.78492803E-05  3.43430142E-05
  3.40366358E-16  1.98063570E-03  1.31903457E-04 -1.83879662E-05 -1.51792845E-16
 -3.04326999E-04 -2.46042735E-05  9.81758096E-06 -2.20579109E-15 -1.97735428E-04
  2.16608602E-04  1.43534051E-04  1.40755029E-14 -1.37416376E-04  5.13407872E-17
  2.75282636E-16 -5.73651244E-05  6.43060491E-05  2.27687323E-01  1.88516547E-01
  4.66250199E-05  1.67966588E-05 -1.80306036E-17  1.95740983E-03  4.96451374E-05
  1.25420843E-04 -3.19628026E-16 -3.03922634E-04 -9.41725499E-07 -2.67460529E-05
  2.70800145E-15 -1.72955608E-04  2.17548669E-04  1.16088883E-04 -1.43744701E-14
 -1.34987346E-04  1.24723007E-17  1.69213340E-16  8.11038554E-05 -1.82021775E-05
  2.27687323E-01  1.88516547E-01 -4.66250199E-05  1.67966588E-05 -1.35963716E-15
  1.95740983E-03 -4.96451373E-05  1.25420843E-04  2.11219965E-15 -3.03922638E-04
  9.41728739E-07 -2.67460542E-05 -3.21706127E-15 -1.72955731E-04 -2.17548653E-04
  1.16088859E-04  1.37755330E-14 -1.34987346E-04  5.30494500E-16 -5.99177353E-17
  8.11038554E-05  1.82021774E-05  1.67353872E-04 -1.16799506E-04  2.90319599E-04
  1.43040682E-04  2.78444139E-05  4.19707334E-05 -5.57756693E-17  1.67884687E-04
 -1.16181183E-04  2.91745976E-04  1.44292619E-04  5.00413757E-05  2.75448867E-06
  1.07405606E-16  1.67884687E-04 -1.16181183E-04  2.91745977E-04  1.44292624E-04
 -5.00413757E-05  2.75448863E-06 -2.39704199E-18  1.67353872E-04 -1.16799506E-04
  2.90319598E-04  1.43040677E-04 -2.78444139E-05  4.19707334E-05  2.04481713E-16
  1.65464150E-04 -1.13143373E-04  2.85808649E-04  1.36635749E-04  2.26850390E-05
 -4.35998118E-05 -1.01755038E-16  1.65464150E-04 -1.13143373E-04  2.85808648E-04
  1.36635744E-04 -2.26850390E-05 -4.35998118E-05 -2.61348742E-16  3.21537212E-01
  2.66257609E-01 -2.10173514E-05  6.65446905E-05  3.66452019E-18  2.58047032E-03
 -4.34200232E-05 -2.96730285E-05  2.75318084E-16 -2.04863005E-04  1.29784267E-05
 -2.81186715E-05 -1.72575540E-15 -9.88239358E-04 -1.01842051E-03  6.41577732E-04
  7.96169683E-15 -2.20927719E-04  1.72428476E-16 -2.24002222E-18 -7.53245762E-05
 -1.59160901E-04  2.04395417E-01  1.69263522E-01  1.52927944E-04 -1.11895808E-04
 -9.67084657E-16  1.58685863E-03  1.33539307E-04  6.17968207E-05  1.51466483E-15
 -7.96559696E-06 -1.39682036E-04  1.08640045E-04 -7.25171460E-16 -2.39932462E-03
  6.40408917E-04 -8.88399228E-04 -3.75742295E-15 -1.51154167E-04 -4.29835602E-17
 -3.01667724E-17 -1.40708815E-04 -1.81612418E-04 -2.04395417E-01 -1.69263522E-01
  1.52927944E-04  1.11895808E-04  2.49746289E-16 -1.58685863E-03  1.33539307E-04
 -6.17968207E-05 -7.83549361E-16  7.96559690E-06 -1.39682036E-04 -1.08640044E-04
  1.44039964E-15  2.39932460E-03  6.40408919E-04  8.88399234E-04  7.15299317E-16
  1.51154167E-04 -2.32452923E-16 -3.24566411E-16  1.40708815E-04 -1.81612418E-04
 -3.21537212E-01 -2.66257609E-01 -2.10173514E-05 -6.65446905E-05  6.64185454E-16
 -2.58047032E-03 -4.34200233E-05  2.96730285E-05 -7.21131099E-16  2.04863006E-04
  1.29784275E-05  2.81186716E-05  1.82253695E-17  9.88239374E-04 -1.01842051E-03
 -6.41577723E-04 -2.84178220E-15  2.20927719E-04  6.78107184E-18 -2.15514845E-16