CH-                                                                     
SP        RMP2-FC                                                     6-311++G(d,p)       
Number of atoms                            I               10
Info1-9                                    I   N=           9
          17          17           0           0           0         110
           1           2           1
Full Title                                 C   N=           1
CH-         
Route                                      C   N=           3
#P MP2/6-311++G** nosymm Density=MP2
Charge                                     I                0
Multiplicity                               I                1
Number of electrons                        I               36
Number of alpha electrons                  I               18
Number of beta electrons                   I               18
Number of basis functions                  I              145
Number of independent functions            I              145
Number of point charges in /Mol/           I                0
Number of translation vectors              I                0
Atomic numbers                             I   N=          10
           6           6           6           6           7           1
           1           1           1           1
Nuclear charges                            R   N=          10
  6.00000000E+00  6.00000000E+00  6.00000000E+00  6.00000000E+00  7.00000000E+00
  1.00000000E+00  1.00000000E+00  1.00000000E+00  1.00000000E+00  1.00000000E+00
Current cartesian coordinates              R   N=          30
  2.12572663E+00  6.25833885E-01  0.00000000E+00  1.34620697E+00 -1.85638960E+00
  0.00000000E+00 -1.34620697E+00 -1.85638960E+00  0.00000000E+00 -2.12572663E+00
  6.25833885E-01  0.00000000E+00  0.00000000E+00  2.11946030E+00  0.00000000E+00
  0.00000000E+00  4.02058538E+00  0.00000000E+00  3.99142313E+00  1.44234681E+00
  0.00000000E+00  2.56892412E+00 -3.48741802E+00  0.00000000E+00 -2.56892412E+00
 -3.48741802E+00  0.00000000E+00 -3.99142313E+00  1.44234681E+00  0.00000000E+00
Number of symbols in /Mol/                 I                0
Force Field                                I                0
Atom Types                                 C   N=          10
                                                            
                                                            
Int Atom Types                             I   N=          10
           0           0           0           0           0           0
           0           0           0           0
MM charges                                 R   N=          10
  0.00000000E+00  0.00000000E+00  0.00000000E+00  0.00000000E+00  0.00000000E+00
  0.00000000E+00  0.00000000E+00  0.00000000E+00  0.00000000E+00  0.00000000E+00
Integer atomic weights                     I   N=          10
          12          12          12          12          14           1
           1           1           1           1
Real atomic weights                        R   N=          10
  1.20000000E+01  1.20000000E+01  1.20000000E+01  1.20000000E+01  1.40030740E+01
  1.00782504E+00  1.00782504E+00  1.00782504E+00  1.00782504E+00  1.00782504E+00
Atom fragment info                         I   N=          10
           0           0           0           0           0           0
           0           0           0           0
Atom residue num                           I   N=          10
           0           0           0           0           0           0
           0           0           0           0
Nuclear spins                              I   N=          10
           0           0           0           0           2           1
           1           1           1           1
Nuclear ZEff                               R   N=          10
 -3.60000000E+00 -3.60000000E+00 -3.60000000E+00 -3.60000000E+00 -4.55000000E+00
 -1.00000000E+00 -1.00000000E+00 -1.00000000E+00 -1.00000000E+00 -1.00000000E+00
Nuclear ZNuc                               R   N=          10
  6.00000000E+00  6.00000000E+00  6.00000000E+00  6.00000000E+00  7.00000000E+00
  1.00000000E+00  1.00000000E+00  1.00000000E+00  1.00000000E+00  1.00000000E+00
Nuclear QMom                               R   N=          10
  0.00000000E+00  0.00000000E+00  0.00000000E+00  0.00000000E+00  2.04400000E+00
  0.00000000E+00  0.00000000E+00  0.00000000E+00  0.00000000E+00  0.00000000E+00
Nuclear GFac                               R   N=          10
  0.00000000E+00  0.00000000E+00  0.00000000E+00  0.00000000E+00  4.03761000E-01
  2.79284600E+00  2.79284600E+00  2.79284600E+00  2.79284600E+00  2.79284600E+00
MicOpt                                     I   N=          10
          -1          -1          -1          -1          -1          -1
          -1          -1          -1          -1
Number of residues                         I                0
Number of secondary structures             I                0
Number of contracted shells                I               55
Number of primitive shells                 I              100
Pure/Cartesian d shells                    I                0
Pure/Cartesian f shells                    I                0
Highest angular momentum                   I                2
Largest degree of contraction              I                6
Shell types                                I   N=          55
           0          -1          -1          -1          -1          -2
           0          -1          -1          -1          -1          -2
           0          -1          -1          -1          -1          -2
           0          -1          -1          -1          -1          -2
           0          -1          -1          -1          -1          -2
           0           0           0           0           1           0
           0           0           0           1           0           0
           0           0           1           0           0           0
           0           1           0           0           0           0
           1
Number of primitives per shell             I   N=          55
           6           3           1           1           1           1
           6           3           1           1           1           1
           6           3           1           1           1           1
           6           3           1           1           1           1
           6           3           1           1           1           1
           3           1           1           1           1           3
           1           1           1           1           3           1
           1           1           1           3           1           1
           1           1           3           1           1           1
           1
Shell to atom map                          I   N=          55
           1           1           1           1           1           1
           2           2           2           2           2           2
           3           3           3           3           3           3
           4           4           4           4           4           4
           5           5           5           5           5           5
           6           6           6           6           6           7
           7           7           7           7           8           8
           8           8           8           9           9           9
           9           9          10          10          10          10
          10
Primitive exponents                        R   N=         100
  4.56324000E+03  6.82024000E+02  1.54973000E+02  4.44553000E+01  1.30290000E+01
  1.82773000E+00  2.09642000E+01  4.80331000E+00  1.45933000E+00  4.83456000E-01
  1.45585000E-01  4.38000000E-02  6.26000000E-01  4.56324000E+03  6.82024000E+02
  1.54973000E+02  4.44553000E+01  1.30290000E+01  1.82773000E+00  2.09642000E+01
  4.80331000E+00  1.45933000E+00  4.83456000E-01  1.45585000E-01  4.38000000E-02
  6.26000000E-01  4.56324000E+03  6.82024000E+02  1.54973000E+02  4.44553000E+01
  1.30290000E+01  1.82773000E+00  2.09642000E+01  4.80331000E+00  1.45933000E+00
  4.83456000E-01  1.45585000E-01  4.38000000E-02  6.26000000E-01  4.56324000E+03
  6.82024000E+02  1.54973000E+02  4.44553000E+01  1.30290000E+01  1.82773000E+00
  2.09642000E+01  4.80331000E+00  1.45933000E+00  4.83456000E-01  1.45585000E-01
  4.38000000E-02  6.26000000E-01  6.29348000E+03  9.49044000E+02  2.18776000E+02
  6.36916000E+01  1.88282000E+01  2.72023000E+00  3.06331000E+01  7.02614000E+00
  2.11205000E+00  6.84009000E-01  2.00878000E-01  6.39000000E-02  9.13000000E-01
  3.38650000E+01  5.09479000E+00  1.15879000E+00  3.25840000E-01  1.02741000E-01
  3.60000000E-02  7.50000000E-01  3.38650000E+01  5.09479000E+00  1.15879000E+00
  3.25840000E-01  1.02741000E-01  3.60000000E-02  7.50000000E-01  3.38650000E+01
  5.09479000E+00  1.15879000E+00  3.25840000E-01  1.02741000E-01  3.60000000E-02
  7.50000000E-01  3.38650000E+01  5.09479000E+00  1.15879000E+00  3.25840000E-01
  1.02741000E-01  3.60000000E-02  7.50000000E-01  3.38650000E+01  5.09479000E+00
  1.15879000E+00  3.25840000E-01  1.02741000E-01  3.60000000E-02  7.50000000E-01
Contraction coefficients                   R   N=         100
  1.96665025E-03  1.52306019E-02  7.61269097E-02  2.60801033E-01  6.16462078E-01
  2.21006028E-01  1.14660081E-01  9.19999648E-01 -3.03068213E-03  1.00000000E+00
  1.00000000E+00  1.00000000E+00  1.00000000E+00  1.96665025E-03  1.52306019E-02
  7.61269097E-02  2.60801033E-01  6.16462078E-01  2.21006028E-01  1.14660081E-01
  9.19999648E-01 -3.03068213E-03  1.00000000E+00  1.00000000E+00  1.00000000E+00
  1.00000000E+00  1.96665025E-03  1.52306019E-02  7.61269097E-02  2.60801033E-01
  6.16462078E-01  2.21006028E-01  1.14660081E-01  9.19999648E-01 -3.03068213E-03
  1.00000000E+00  1.00000000E+00  1.00000000E+00  1.00000000E+00  1.96665025E-03
  1.52306019E-02  7.61269097E-02  2.60801033E-01  6.16462078E-01  2.21006028E-01
  1.14660081E-01  9.19999648E-01 -3.03068213E-03  1.00000000E+00  1.00000000E+00
  1.00000000E+00  1.00000000E+00  1.96978815E-03  1.49612859E-02  7.35005308E-02
  2.48936766E-01  6.02459433E-01  2.56201759E-01  1.11906080E-01  9.21666655E-01
 -2.56919183E-03  1.00000000E+00  1.00000000E+00  1.00000000E+00  1.00000000E+00
  2.54938145E-02  1.90373109E-01  8.52161486E-01  1.00000000E+00  1.00000000E+00
  1.00000000E+00  1.00000000E+00  2.54938145E-02  1.90373109E-01  8.52161486E-01
  1.00000000E+00  1.00000000E+00  1.00000000E+00  1.00000000E+00  2.54938145E-02
  1.90373109E-01  8.52161486E-01  1.00000000E+00  1.00000000E+00  1.00000000E+00
  1.00000000E+00  2.54938145E-02  1.90373109E-01  8.52161486E-01  1.00000000E+00
  1.00000000E+00  1.00000000E+00  1.00000000E+00  2.54938145E-02  1.90373109E-01
  8.52161486E-01  1.00000000E+00  1.00000000E+00  1.00000000E+00  1.00000000E+00
P(S=P) Contraction coefficients            R   N=         100
  0.00000000E+00  0.00000000E+00  0.00000000E+00  0.00000000E+00  0.00000000E+00
  0.00000000E+00  4.02486927E-02  2.37593957E-01  8.15853851E-01  1.00000000E+00
  1.00000000E+00  1.00000000E+00  0.00000000E+00  0.00000000E+00  0.00000000E+00
  0.00000000E+00  0.00000000E+00  0.00000000E+00  0.00000000E+00  4.02486927E-02
  2.37593957E-01  8.15853851E-01  1.00000000E+00  1.00000000E+00  1.00000000E+00
  0.00000000E+00  0.00000000E+00  0.00000000E+00  0.00000000E+00  0.00000000E+00
  0.00000000E+00  0.00000000E+00  4.02486927E-02  2.37593957E-01  8.15853851E-01
  1.00000000E+00  1.00000000E+00  1.00000000E+00  0.00000000E+00  0.00000000E+00
  0.00000000E+00  0.00000000E+00  0.00000000E+00  0.00000000E+00  0.00000000E+00
  4.02486927E-02  2.37593957E-01  8.15853851E-01  1.00000000E+00  1.00000000E+00
  1.00000000E+00  0.00000000E+00  0.00000000E+00  0.00000000E+00  0.00000000E+00
  0.00000000E+00  0.00000000E+00  0.00000000E+00  3.83119186E-02  2.37403116E-01
  8.17592398E-01  1.00000000E+00  1.00000000E+00  1.00000000E+00  0.00000000E+00
  0.00000000E+00  0.00000000E+00  0.00000000E+00  0.00000000E+00  0.00000000E+00
  0.00000000E+00  0.00000000E+00  0.00000000E+00  0.00000000E+00  0.00000000E+00
  0.00000000E+00  0.00000000E+00  0.00000000E+00  0.00000000E+00  0.00000000E+00
  0.00000000E+00  0.00000000E+00  0.00000000E+00  0.00000000E+00  0.00000000E+00
  0.00000000E+00  0.00000000E+00  0.00000000E+00  0.00000000E+00  0.00000000E+00
  0.00000000E+00  0.00000000E+00  0.00000000E+00  0.00000000E+00  0.00000000E+00
  0.00000000E+00  0.00000000E+00  0.00000000E+00  0.00000000E+00  0.00000000E+00
Coordinates of each shell                  R   N=         165
  2.12572663E+00  6.25833885E-01  0.00000000E+00  2.12572663E+00  6.25833885E-01
  0.00000000E+00  2.12572663E+00  6.25833885E-01  0.00000000E+00  2.12572663E+00
  6.25833885E-01  0.00000000E+00  2.12572663E+00  6.25833885E-01  0.00000000E+00
  2.12572663E+00  6.25833885E-01  0.00000000E+00  1.34620697E+00 -1.85638960E+00
  0.00000000E+00  1.34620697E+00 -1.85638960E+00  0.00000000E+00  1.34620697E+00
 -1.85638960E+00  0.00000000E+00  1.34620697E+00 -1.85638960E+00  0.00000000E+00
  1.34620697E+00 -1.85638960E+00  0.00000000E+00  1.34620697E+00 -1.85638960E+00
  0.00000000E+00 -1.34620697E+00 -1.85638960E+00  0.00000000E+00 -1.34620697E+00
 -1.85638960E+00  0.00000000E+00 -1.34620697E+00 -1.85638960E+00  0.00000000E+00
 -1.34620697E+00 -1.85638960E+00  0.00000000E+00 -1.34620697E+00 -1.85638960E+00
  0.00000000E+00 -1.34620697E+00 -1.85638960E+00  0.00000000E+00 -2.12572663E+00
  6.25833885E-01  0.00000000E+00 -2.12572663E+00  6.25833885E-01  0.00000000E+00
 -2.12572663E+00  6.25833885E-01  0.00000000E+00 -2.12572663E+00  6.25833885E-01
  0.00000000E+00 -2.12572663E+00  6.25833885E-01  0.00000000E+00 -2.12572663E+00
  6.25833885E-01  0.00000000E+00  0.00000000E+00  2.11946030E+00  0.00000000E+00
  0.00000000E+00  2.11946030E+00  0.00000000E+00  0.00000000E+00  2.11946030E+00
  0.00000000E+00  0.00000000E+00  2.11946030E+00  0.00000000E+00  0.00000000E+00
  2.11946030E+00  0.00000000E+00  0.00000000E+00  2.11946030E+00  0.00000000E+00
  0.00000000E+00  4.02058538E+00  0.00000000E+00  0.00000000E+00  4.02058538E+00
  0.00000000E+00  0.00000000E+00  4.02058538E+00  0.00000000E+00  0.00000000E+00
  4.02058538E+00  0.00000000E+00  0.00000000E+00  4.02058538E+00  0.00000000E+00
  3.99142313E+00  1.44234681E+00  0.00000000E+00  3.99142313E+00  1.44234681E+00
  0.00000000E+00  3.99142313E+00  1.44234681E+00  0.00000000E+00  3.99142313E+00
  1.44234681E+00  0.00000000E+00  3.99142313E+00  1.44234681E+00  0.00000000E+00
  2.56892412E+00 -3.48741802E+00  0.00000000E+00  2.56892412E+00 -3.48741802E+00
  0.00000000E+00  2.56892412E+00 -3.48741802E+00  0.00000000E+00  2.56892412E+00
 -3.48741802E+00  0.00000000E+00  2.56892412E+00 -3.48741802E+00  0.00000000E+00
 -2.56892412E+00 -3.48741802E+00  0.00000000E+00 -2.56892412E+00 -3.48741802E+00
  0.00000000E+00 -2.56892412E+00 -3.48741802E+00  0.00000000E+00 -2.56892412E+00
 -3.48741802E+00  0.00000000E+00 -2.56892412E+00 -3.48741802E+00  0.00000000E+00
 -3.99142313E+00  1.44234681E+00  0.00000000E+00 -3.99142313E+00  1.44234681E+00
  0.00000000E+00 -3.99142313E+00  1.44234681E+00  0.00000000E+00 -3.99142313E+00
  1.44234681E+00  0.00000000E+00 -3.99142313E+00  1.44234681E+00  0.00000000E+00
Num ILSW                                   I              100
ILSW                                       I   N=         100
           0           0           0           0           2           0
           0           0           0           0           0          -1
           5           0           0           0           0           0
           0           0           0           0           0           0
           1           1           0           0           0           0
           0           0      100000           0          -1           0
           0           0           0           0           0           0
           0           0           0           1           0           0
           0 -2000000000           1           0           0           0
           0           0           4          52           0           0
           0           0           0           0           0           0
           0           0           0          10           0           1
           0           0           0           0           0           0
           0           0           0           0           0           0
           0           0           0           0           0           0
           0           0           0           0           0           0
           0           0           0           0
Num RLSW                                   I               52
RLSW                                       R   N=          52
  1.00000000E+00  1.00000000E+00  1.00000000E+00  1.00000000E+00  1.00000000E+00
  0.00000000E+00  0.00000000E+00  1.00000000E+00  0.00000000E+00  0.00000000E+00
  0.00000000E+00  0.00000000E+00  1.00000000E+00  0.00000000E+00  0.00000000E+00
  0.00000000E+00  0.00000000E+00  1.00000000E+00  0.00000000E+00  0.00000000E+00
  0.00000000E+00  0.00000000E+00  1.00000000E+00  0.00000000E+00  0.00000000E+00
  0.00000000E+00  0.00000000E+00  1.00000000E+00  0.00000000E+00  0.00000000E+00
  0.00000000E+00  0.00000000E+00  1.00000000E+00  0.00000000E+00  0.00000000E+00
  0.00000000E+00  0.00000000E+00  0.00000000E+00  1.00000000E+00  1.00000000E+00
  0.00000000E+00  1.00000000E+00  0.00000000E+00  0.00000000E+00  0.00000000E+00
  0.00000000E+00  0.00000000E+00  0.00000000E+00  0.00000000E+00  0.00000000E+00
  0.00000000E+00  0.00000000E+00
MxBond                                     I                3
NBond                                      I   N=          10
           3           3           3           3           3           1
           1           1           1           1
IBond                                      I   N=          30
           2           5           7           1           3           8
           2           4           9           3           5          10
           1           4           6           5           0           0
           1           0           0           2           0           0
           3           0           0           4           0           0
RBond                                      R   N=          30
  1.50000000E+00  1.00000000E+00  1.00000000E+00  1.50000000E+00  1.50000000E+00
  1.00000000E+00  1.50000000E+00  1.50000000E+00  1.00000000E+00  1.50000000E+00
  1.00000000E+00  1.00000000E+00  1.00000000E+00  1.00000000E+00  1.00000000E+00
  1.00000000E+00  0.00000000E+00  0.00000000E+00  1.00000000E+00  0.00000000E+00
  0.00000000E+00  1.00000000E+00  0.00000000E+00  0.00000000E+00  1.00000000E+00
  0.00000000E+00  0.00000000E+00  1.00000000E+00  0.00000000E+00  0.00000000E+00
Virial Ratio                               R      2.001416228513902E+00
SCF Energy                                 R     -2.088632794550491E+02
MP2 Energy                                 R     -2.096015050915344E+02
Total Energy                               R     -2.096015050915344E+02
Post-SCF wavefunction norm                 R      1.121652920327068E+00
RMS Density                                R      3.053572892256076E-09
Job Status                                 I                1
Nuclear derivative order                   I                0
External E-field                           R   N=          35
  0.00000000E+00  0.00000000E+00  0.00000000E+00  0.00000000E+00  0.00000000E+00
  0.00000000E+00  0.00000000E+00  0.00000000E+00  0.00000000E+00  0.00000000E+00
  0.00000000E+00  0.00000000E+00  0.00000000E+00  0.00000000E+00  0.00000000E+00
  0.00000000E+00  0.00000000E+00  0.00000000E+00  0.00000000E+00  0.00000000E+00
  0.00000000E+00  0.00000000E+00  0.00000000E+00  0.00000000E+00  0.00000000E+00
  0.00000000E+00  0.00000000E+00  0.00000000E+00  0.00000000E+00  0.00000000E+00
  0.00000000E+00  0.00000000E+00  0.00000000E+00  0.00000000E+00  0.00000000E+00
IOpCl                                      I                0
IROHF                                      I                0
Alpha Orbital Energies                     R   N=         145
 -1.56070672E+01 -1.12553099E+01 -1.12552678E+01 -1.12121045E+01 -1.12110797E+01
 -1.29138811E+00 -1.04291491E+00 -9.78524903E-01 -7.94006696E-01 -7.68027697E-01
 -7.37521618E-01 -5.93978911E-01 -5.84147631E-01 -5.65668455E-01 -5.49204469E-01
 -5.29088892E-01 -3.46560251E-01 -2.98258981E-01  3.79994352E-02  4.94837382E-02
  5.39078924E-02  7.11256511E-02  7.55345773E-02  1.11431077E-01  1.34386924E-01
  1.38204056E-01  1.46249695E-01  1.54956676E-01  1.62398185E-01  1.63343078E-01
  1.80471672E-01  1.82913157E-01  1.95947813E-01  1.99505848E-01  2.00434129E-01
  2.11880358E-01  2.15709219E-01  2.24386931E-01  2.33148456E-01  2.47455856E-01
  2.80591619E-01  2.83005902E-01  2.85349346E-01  3.34659165E-01  3.40333390E-01
  3.74919917E-01  3.90830894E-01  4.07135919E-01  4.14901713E-01  4.39563192E-01
  4.45060436E-01  4.62125533E-01  5.35950556E-01  6.07645934E-01  6.32548820E-01
  6.47825095E-01  7.30830023E-01  7.33130947E-01  7.41248097E-01  7.54995977E-01
  7.87858072E-01  7.94773180E-01  8.01515488E-01  8.49512251E-01  8.57255917E-01
  9.24167186E-01  9.54870190E-01  9.61504227E-01  1.01172756E+00  1.02462137E+00
  1.02905773E+00  1.05957659E+00  1.06846790E+00  1.06915366E+00  1.10796052E+00
  1.13014680E+00  1.19763694E+00  1.20115938E+00  1.24079418E+00  1.26808556E+00
  1.33208100E+00  1.37432076E+00  1.42015915E+00  1.42899574E+00  1.43243393E+00
  1.65342387E+00  1.79098596E+00  1.80852919E+00  1.82310236E+00  1.83884554E+00
  1.85724182E+00  1.89860672E+00  1.94030716E+00  1.99374889E+00  2.02234223E+00
  2.04654270E+00  2.10050888E+00  2.10942821E+00  2.15202251E+00  2.20483683E+00
  2.22953965E+00  2.29302584E+00  2.29395940E+00  2.30065274E+00  2.31126788E+00
  2.47031201E+00  2.48496139E+00  2.60915704E+00  2.70384490E+00  2.74477411E+00
  2.78771734E+00  2.83546898E+00  2.85492705E+00  2.94996819E+00  2.95424585E+00
  3.03002516E+00  3.04454266E+00  3.05126329E+00  3.08287093E+00  3.09546218E+00
  3.12607258E+00  3.12976367E+00  3.20953995E+00  3.22524780E+00  3.31332587E+00
  3.31682830E+00  3.43238503E+00  3.64076227E+00  3.72443335E+00  3.85062308E+00
  3.90008335E+00  3.91757145E+00  3.98557642E+00  4.19616984E+00  4.34949048E+00
  4.47904544E+00  4.50590567E+00  4.72096523E+00  5.40662067E+00  5.60438398E+00
  2.48794669E+01  2.50715722E+01  2.53039015E+01  2.53640174E+01  3.70283921E+01
Alpha MO coefficients                      R   N=       21025
  1.51798935E-05 -2.11973281E-05 -7.76178493E-05  5.85635620E-05 -4.15665294E-16
  1.97834340E-04 -1.75285484E-04  1.14048377E-04  8.55166632E-16  5.18663290E-04
 -5.79203173E-04 -1.92855706E-04 -8.95690198E-16 -1.89710476E-04  2.44715438E-06
 -4.14651652E-05  1.25675626E-15  1.87348582E-05  1.14425621E-17  3.96677382E-17
 -1.22098060E-05 -9.33169614E-05  1.19789448E-06 -5.22919637E-06  1.15293406E-05
 -5.77644138E-06  1.71967041E-16  3.93447646E-05 -4.20147912E-05  1.15707942E-05
 -5.88183075E-16 -3.38482197E-04  1.59285498E-04 -3.18704229E-04  5.86483641E-16
  1.98219665E-05  1.93635549E-04 -1.68169883E-04 -1.16761532E-15 -1.22202615E-05
  1.25874169E-16 -1.08736060E-16 -1.66296457E-05 -1.65564586E-05  1.19789448E-06
 -5.22919637E-06 -1.15293406E-05 -5.77644138E-06 -1.33191628E-16  3.93447646E-05
  4.20147912E-05  1.15707942E-05 -7.82494713E-17 -3.38482197E-04 -1.59285498E-04
 -3.18704229E-04  3.47933653E-16  1.98219682E-05 -1.93635549E-04 -1.68169882E-04
  9.09424112E-17 -1.22202615E-05  7.70644342E-17  4.57649713E-17 -1.66296457E-05
  1.65564586E-05  1.51798935E-05 -2.11973281E-05  7.76178493E-05  5.85635620E-05
  4.93031409E-17  1.97834340E-04  1.75285484E-04  1.14048377E-04 -2.82911761E-16
  5.18663289E-04  5.79203172E-04 -1.92855705E-04  4.41979039E-16 -1.89710477E-04
 -2.44715461E-06 -4.14651646E-05  1.10592173E-16  1.87348582E-05  8.51757955E-17
  1.69349722E-17 -1.22098060E-05  9.33169614E-05  5.57610802E-01  4.68190402E-01
  2.23869339E-16  9.23930769E-05  1.28259964E-16  5.37787940E-03 -1.35056056E-15
 -1.34629342E-04 -2.80671911E-16 -1.45168285E-03 -3.08613424E-14  6.83834991E-04
  1.86792557E-16  7.52354630E-04  1.43711762E-13 -4.58898680E-04 -8.49515428E-16
 -5.40620840E-05  1.37751079E-16 -1.27097519E-18 -7.77796411E-05  1.61374534E-15
  2.56208639E-04 -2.67233105E-04  2.71818618E-04  1.36909074E-04  1.59440597E-15
  3.43094541E-05  2.28997579E-17 -6.95849180E-06  1.78018939E-04  1.66883016E-04
  1.97382634E-05 -3.89864433E-05 -2.35112414E-05  2.34215450E-17  1.37642382E-06
 -4.70257447E-05 -1.83060834E-04 -1.43368904E-04  1.02486401E-05  1.26051982E-06
  2.51364049E-17  1.37642382E-06 -4.70257447E-05 -1.83060834E-04 -1.43368904E-04
 -1.02486401E-05  1.26051982E-06 -6.55422328E-17 -6.95849180E-06  1.78018939E-04
  1.66883016E-04  1.97382631E-05  3.89864433E-05 -2.35112414E-05 -1.28152438E-19
  3.98310058E-01  3.29862415E-01 -3.74595988E-04  6.32066435E-04 -6.33364389E-16
  3.01132230E-03  2.31365354E-04 -7.08114282E-04  9.85630371E-16  1.55070059E-04
 -4.55365594E-04  2.17485342E-04 -2.28331163E-15  3.57310280E-04 -1.11970043E-03
 -5.69699257E-04  7.26284804E-15 -2.65631156E-04  7.09730454E-16  1.99914995E-16
 -1.39890441E-04  3.79651538E-04  6.09126271E-03  5.02316346E-03  5.54627269E-05
  1.82183927E-04  8.27736346E-17  1.83595030E-04 -1.61032512E-05 -2.34148969E-04
 -4.80517036E-16 -8.50807812E-04  3.64903934E-04 -2.08996842E-04  2.97153100E-15
  5.46342090E-04 -1.53046417E-04  4.82446360E-04 -8.20033577E-15  9.74830047E-05
 -1.96108581E-16  8.68219258E-16  7.56053124E-05  1.41500077E-05 -6.09126277E-03
 -5.02316351E-03  5.54627274E-05 -1.82183928E-04  8.54012974E-17 -1.83595033E-04
 -1.61032514E-05  2.34148970E-04  3.70221781E-17  8.50807814E-04  3.64903935E-04
  2.08996842E-04 -1.62125104E-15 -5.46342102E-04 -1.53046416E-04 -4.82446362E-04
  5.00571450E-15 -9.74830056E-05 -2.21900822E-16 -9.30147684E-16 -7.56053127E-05
  1.41500077E-05 -3.98310062E-01 -3.29862418E-01 -3.74595991E-04 -6.32066441E-04
 -5.31816178E-16 -3.01132233E-03  2.31365354E-04  7.08114288E-04  4.48395198E-16
 -1.55070051E-04 -4.55365593E-04 -2.17485344E-04  1.00983522E-15 -3.57310265E-04
 -1.11970043E-03  5.69699254E-04 -1.67381906E-15  2.65631159E-04  1.50329499E-16
 -6.59894318E-16  1.39890442E-04  3.79651540E-04  9.10983875E-13  1.48433586E-12
  1.46915073E-04  6.28596569E-13  4.58333588E-16 -3.61198174E-12  8.39915214E-04
  2.00308408E-12 -7.39147557E-16  1.13372128E-12 -4.03179396E-04  3.44275588E-13
  8.48508171E-16 -6.75072820E-12  1.81026844E-04  6.95543626E-12 -2.96127839E-15
  1.73712271E-13  1.18440392E-16 -5.23711170E-16 -9.99298702E-13 -3.05359305E-04
 -2.40057895E-13 -2.94268231E-14 -3.07798959E-12 -2.95621685E-12  2.05036519E-05
  4.52553397E-13  6.57672580E-16  2.48793425E-04 -2.28724461E-04  6.20229083E-04
  7.69407981E-04  8.21531559E-05 -1.32412939E-05 -4.47914767E-17  1.28945885E-05
 -9.86297583E-05  8.86474008E-06  1.13747994E-04  1.46402578E-05 -4.19006451E-06
 -4.61734225E-17 -1.28945885E-05  9.86297582E-05 -8.86473936E-06 -1.13747993E-04
  1.46402579E-05  4.19006439E-06 -5.23164317E-16 -2.48793428E-04  2.28724462E-04
 -6.20229085E-04 -7.69407978E-04  8.21531562E-05  1.32412939E-05  3.99240957E-17
  3.98317141E-01  3.29859061E-01 -3.45087624E-04  6.13871251E-04  3.26580584E-16
  3.07990700E-03  8.96293172E-05 -6.05700445E-04 -6.78199444E-16 -8.28303845E-04
  9.91175707E-05  2.06134068E-04  1.49169545E-15 -1.53426695E-03  3.82125452E-04
  2.89683007E-04 -6.27046721E-15 -2.56081436E-04 -1.92023974E-16 -2.78177701E-16
 -8.59335572E-05  2.60617954E-04  6.06192338E-03  4.98796441E-03  5.26379196E-05
  1.56266088E-04 -2.72240088E-16  2.39600317E-04 -2.29625820E-05 -6.85244122E-05
  8.50181254E-16 -1.57403231E-04  9.02674526E-05 -3.25532633E-05 -2.87836318E-15
  1.13205551E-03  1.15344703E-04  1.84400342E-04  7.26394387E-15  8.98926345E-05
  1.83189409E-16 -1.11267642E-16  3.56643851E-05 -2.81257304E-07  6.06192332E-03
  4.98796436E-03 -5.26379190E-05  1.56266087E-04  3.77823530E-16  2.39600315E-04
  2.29625818E-05 -6.85244100E-05 -6.39708004E-16 -1.57403224E-04 -9.02674490E-05
 -3.25532612E-05  1.89569532E-15  1.13205554E-03 -1.15344699E-04  1.84400344E-04
 -4.46966739E-15  8.98926336E-05  3.88257613E-17  6.75474785E-17  3.56643844E-05
  2.81257432E-07  3.98317137E-01  3.29859058E-01  3.45087621E-04  6.13871245E-04
 -1.72121338E-16  3.07990697E-03 -8.96293149E-05 -6.05700438E-04  3.26270266E-16
 -8.28303846E-04 -9.91175754E-05  2.06134066E-04 -1.09885175E-15 -1.53426698E-03
 -3.82125468E-04  2.89683016E-04  1.21062070E-15 -2.56081433E-04  1.87918105E-16
  4.32893503E-17 -8.59335558E-05 -2.60617951E-04 -1.88515985E-04 -3.06934539E-04
  7.12774738E-13 -1.30038070E-04  2.53565838E-16  7.45458439E-04  4.05237585E-12
 -4.14660594E-04  5.15317683E-17 -2.21605760E-04 -1.86733989E-12 -8.17393114E-05
 -7.49733438E-16  1.45153583E-03  6.49729737E-13 -1.42183010E-03  2.91797282E-15
 -3.62347672E-05  2.67194043E-16  1.66278185E-16  2.07037050E-04 -1.48296068E-12
  4.92479895E-05  1.08773037E-05  6.21036352E-04  6.26253804E-04  9.36398051E-14
 -9.41025619E-05 -1.50163017E-16  2.54741311E-04 -1.02130939E-04  1.65525243E-04
 -2.46546235E-04  2.51362508E-05 -4.80924601E-06 -1.60274445E-17  2.90251097E-06
  2.95849406E-06 -5.32437236E-05 -4.59006422E-05  1.55126632E-06  1.13560081E-05
  2.33211508E-16  2.90251084E-06  2.95849506E-06 -5.32437233E-05 -4.59006408E-05
 -1.55126616E-06  1.13560082E-05 -9.49855380E-17  2.54741309E-04 -1.02130937E-04
  1.65525236E-04 -2.46546245E-04 -2.51362500E-05 -4.80924588E-06  1.64117551E-16
 -6.19703335E-03 -5.18483805E-03 -3.81904021E-05 -1.69626502E-04  2.30366113E-16
  2.63531441E-04 -5.09025723E-05 -6.61545860E-05 -1.71151915E-16 -4.53727027E-04
  9.18239117E-05 -2.58983403E-05 -9.13040459E-17 -3.22978665E-03  1.15706458E-03
  8.07639139E-04 -3.50792910E-15  8.01585277E-05  1.46310613E-16  3.61347662E-16