 Entering Gaussian System, Link 0=g16
 Initial command:
 /sw/cluster/pub/apps//g16/l1.exe "/data/mmaximo/31361/Gau-50041.inp" -scrdir="/data/mmaximo/31361/"
 Entering Link 1 = /sw/cluster/pub/apps//g16/l1.exe PID=     50042.
  
 Copyright (c) 1988,1990,1992,1993,1995,1998,2003,2009,2016,
            Gaussian, Inc.  All Rights Reserved.
  
 This is part of the Gaussian(R) 16 program.  It is based on
 the Gaussian(R) 09 system (copyright 2009, Gaussian, Inc.),
 the Gaussian(R) 03 system (copyright 2003, Gaussian, Inc.),
 the Gaussian(R) 98 system (copyright 1998, Gaussian, Inc.),
 the Gaussian(R) 94 system (copyright 1995, Gaussian, Inc.),
 the Gaussian 92(TM) system (copyright 1992, Gaussian, Inc.),
 the Gaussian 90(TM) system (copyright 1990, Gaussian, Inc.),
 the Gaussian 88(TM) system (copyright 1988, Gaussian, Inc.),
 the Gaussian 86(TM) system (copyright 1986, Carnegie Mellon
 University), and the Gaussian 82(TM) system (copyright 1983,
 Carnegie Mellon University). Gaussian is a federally registered
 trademark of Gaussian, Inc.
  
 This software contains proprietary and confidential information,
 including trade secrets, belonging to Gaussian, Inc.
  
 This software is provided under written license and may be
 used, copied, transmitted, or stored only in accord with that
 written license.
  
 The following legend is applicable only to US Government
 contracts under FAR:
  
                    RESTRICTED RIGHTS LEGEND
  
 Use, reproduction and disclosure by the US Government is
 subject to restrictions as set forth in subparagraphs (a)
 and (c) of the Commercial Computer Software - Restricted
 Rights clause in FAR 52.227-19.
  
 Gaussian, Inc.
 340 Quinnipiac St., Bldg. 40, Wallingford CT 06492
  
  
 ---------------------------------------------------------------
 Warning -- This program may not be used in any manner that
 competes with the business of Gaussian, Inc. or will provide
 assistance to any competitor of Gaussian, Inc.  The licensee
 of this program is prohibited from giving any competitor of
 Gaussian, Inc. access to this program.  By using this program,
 the user acknowledges that Gaussian, Inc. is engaged in the
 business of creating and licensing software in the field of
 computational chemistry and represents and warrants to the
 licensee that it is not a competitor of Gaussian, Inc. and that
 it will not use this program in any manner prohibited above.
 ---------------------------------------------------------------
  

 Cite this work as:
 Gaussian 16, Revision A.03,
 M. J. Frisch, G. W. Trucks, H. B. Schlegel, G. E. Scuseria, 
 M. A. Robb, J. R. Cheeseman, G. Scalmani, V. Barone, 
 G. A. Petersson, H. Nakatsuji, X. Li, M. Caricato, A. V. Marenich, 
 J. Bloino, B. G. Janesko, R. Gomperts, B. Mennucci, H. P. Hratchian, 
 J. V. Ortiz, A. F. Izmaylov, J. L. Sonnenberg, D. Williams-Young, 
 F. Ding, F. Lipparini, F. Egidi, J. Goings, B. Peng, A. Petrone, 
 T. Henderson, D. Ranasinghe, V. G. Zakrzewski, J. Gao, N. Rega, 
 G. Zheng, W. Liang, M. Hada, M. Ehara, K. Toyota, R. Fukuda, 
 J. Hasegawa, M. Ishida, T. Nakajima, Y. Honda, O. Kitao, H. Nakai, 
 T. Vreven, K. Throssell, J. A. Montgomery, Jr., J. E. Peralta, 
 F. Ogliaro, M. J. Bearpark, J. J. Heyd, E. N. Brothers, K. N. Kudin, 
 V. N. Staroverov, T. A. Keith, R. Kobayashi, J. Normand, 
 K. Raghavachari, A. P. Rendell, J. C. Burant, S. S. Iyengar, 
 J. Tomasi, M. Cossi, J. M. Millam, M. Klene, C. Adamo, R. Cammi, 
 J. W. Ochterski, R. L. Martin, K. Morokuma, O. Farkas, 
 J. B. Foresman, and D. J. Fox, Gaussian, Inc., Wallingford CT, 2016.
 
 ******************************************
 Gaussian 16:  ES64L-G16RevA.03 25-Dec-2016
                13-Feb-2025 
 ******************************************
 %chk=NH.chk
 ------------------------------------
 #P MP2/6-311++G** nosymm Density=MP2
 ------------------------------------
 1/30=1,38=1,172=1/1;
 2/12=2,15=1,17=6,18=5,40=1/2;
 3/5=4,6=6,7=1111,11=9,25=1,30=1,71=1/1,2,3;
 4//1;
 5/5=2,38=5/2;
 8/6=4,10=2/1;
 9/15=1,16=-3/6;
 10/5=1,13=10,31=1/2;
 6/7=2,8=2,9=2,10=2,22=2/1;
 99/5=1,9=1/99;
 Leave Link    1 at Thu Feb 13 09:44:47 2025, MaxMem=           0 cpu:               0.0 elap:               0.0
 (Enter /sw/cluster/pub/apps//g16/l101.exe)
 ---
 CH-
 ---
 Symbolic Z-matrix:
 Charge =  0 Multiplicity = 1
 C                     1.12489   0.33118   0. 
 C                     0.71238  -0.98236   0. 
 C                    -0.71238  -0.98236   0. 
 C                    -1.12489   0.33118   0. 
 N                     0.        1.12157   0. 
 H                     0.        2.1276    0. 
 H                     2.11217   0.76326   0. 
 H                     1.35942  -1.84546   0. 
 H                    -1.35942  -1.84546   0. 
 H                    -2.11217   0.76326   0. 
 
 ITRead=  0  0  0  0  0  0  0  0  0  0
 MicOpt= -1 -1 -1 -1 -1 -1 -1 -1 -1 -1
 NAtoms=     10 NQM=       10 NQMF=       0 NMMI=      0 NMMIF=      0
                NMic=       0 NMicF=      0.
                    Isotopes and Nuclear Properties:
 (Nuclear quadrupole moments (NQMom) in fm**2, nuclear magnetic moments (NMagM)
  in nuclear magnetons)

  Atom         1           2           3           4           5           6           7           8           9          10
 IAtWgt=          12          12          12          12          14           1           1           1           1           1
 AtmWgt=  12.0000000  12.0000000  12.0000000  12.0000000  14.0030740   1.0078250   1.0078250   1.0078250   1.0078250   1.0078250
 NucSpn=           0           0           0           0           2           1           1           1           1           1
 AtZEff=  -0.0000000  -0.0000000  -0.0000000  -0.0000000  -0.0000000  -0.0000000  -0.0000000  -0.0000000  -0.0000000  -0.0000000
 NQMom=    0.0000000   0.0000000   0.0000000   0.0000000   2.0440000   0.0000000   0.0000000   0.0000000   0.0000000   0.0000000
 NMagM=    0.0000000   0.0000000   0.0000000   0.0000000   0.4037610   2.7928460   2.7928460   2.7928460   2.7928460   2.7928460
 AtZNuc=   6.0000000   6.0000000   6.0000000   6.0000000   7.0000000   1.0000000   1.0000000   1.0000000   1.0000000   1.0000000
 Leave Link  101 at Thu Feb 13 09:44:48 2025, MaxMem=   104857600 cpu:               0.0 elap:               0.0
 (Enter /sw/cluster/pub/apps//g16/l202.exe)
                          Input orientation:                          
 ---------------------------------------------------------------------
 Center     Atomic      Atomic             Coordinates (Angstroms)
 Number     Number       Type             X           Y           Z
 ---------------------------------------------------------------------
      1          6           0        1.124886    0.331177    0.000000
      2          6           0        0.712382   -0.982359    0.000000
      3          6           0       -0.712382   -0.982359    0.000000
      4          6           0       -1.124886    0.331177    0.000000
      5          7           0        0.000000    1.121570    0.000000
      6          1           0        0.000000    2.127602    0.000000
      7          1           0        2.112170    0.763257    0.000000
      8          1           0        1.359416   -1.845462    0.000000
      9          1           0       -1.359416   -1.845462    0.000000
     10          1           0       -2.112170    0.763257    0.000000
 ---------------------------------------------------------------------
                    Distance matrix (angstroms):
                    1          2          3          4          5
     1  C    0.000000
     2  C    1.376785   0.000000
     3  C    2.258524   1.424764   0.000000
     4  C    2.249772   2.258524   1.376785   0.000000
     5  N    1.374805   2.221262   2.221262   1.374805   0.000000
     6  H    2.119555   3.190509   3.190509   2.119555   1.006032
     7  H    1.077693   2.237539   3.320432   3.265766   2.142347
     8  H    2.189238   1.078703   2.244392   3.302956   3.263632
     9  H    3.302956   2.244392   1.078703   2.189238   3.263632
    10  H    3.265766   3.320432   2.237539   1.077693   2.142347
                    6          7          8          9         10
     6  H    0.000000
     7  H    2.514498   0.000000
     8  H    4.199197   2.715153   0.000000
     9  H    4.199197   4.342502   2.718832   0.000000
    10  H    2.514498   4.224340   4.342502   2.715153   0.000000
 Symmetry turned off by external request.
 Stoichiometry    C4H5N
 Framework group  C2V[C2(NH),SGV(C4H4)]
 Deg. of freedom     9
 Full point group                 C2V     NOp   4
 Rotational constants (GHZ):           9.1445070           9.0232056           4.5417257
 Leave Link  202 at Thu Feb 13 09:44:48 2025, MaxMem=   104857600 cpu:               0.0 elap:               0.0
 (Enter /sw/cluster/pub/apps//g16/l301.exe)
 Standard basis: 6-311++G(d,p) (5D, 7F)
 Ernie: Thresh=  0.10000D-02 Tol=  0.10000D-05 Strict=F.
   145 basis functions,   225 primitive gaussians,   150 cartesian basis functions
    18 alpha electrons       18 beta electrons
       nuclear repulsion energy       160.8754464526 Hartrees.
 IExCor=    0 DFT=F Ex=HF Corr=None ExCW=0 ScaHFX=  1.000000
 ScaDFX=  1.000000  1.000000  1.000000  1.000000 ScalE2=  1.000000  1.000000
 IRadAn=      5 IRanWt=     -1 IRanGd=            0 ICorTp=0 IEmpDi=  4
 NAtoms=   10 NActive=   10 NUniq=   10 SFac= 1.00D+00 NAtFMM=   60 NAOKFM=F Big=F
 Integral buffers will be    131072 words long.
 Raffenetti 1 integral format.
 Two-electron integral symmetry is turned off.
 Leave Link  301 at Thu Feb 13 09:44:48 2025, MaxMem=   104857600 cpu:               0.0 elap:               0.0
 (Enter /sw/cluster/pub/apps//g16/l302.exe)
 NPDir=0 NMtPBC=     1 NCelOv=     1 NCel=       1 NClECP=     1 NCelD=      1
         NCelK=      1 NCelE2=     1 NClLst=     1 CellRange=     0.0.
 One-electron integrals computed using PRISM.
 NBasis=   145 RedAO= T EigKep=  6.39D-06  NBF=   145
 NBsUse=   145 1.00D-06 EigRej= -1.00D+00 NBFU=   145
 Leave Link  302 at Thu Feb 13 09:44:48 2025, MaxMem=   104857600 cpu:               0.0 elap:               0.1
 (Enter /sw/cluster/pub/apps//g16/l303.exe)
 DipDrv:  MaxL=1.
 Leave Link  303 at Thu Feb 13 09:44:48 2025, MaxMem=   104857600 cpu:               0.0 elap:               0.0
 (Enter /sw/cluster/pub/apps//g16/l401.exe)
 ExpMin= 3.60D-02 ExpMax= 6.29D+03 ExpMxC= 9.49D+02 IAcc=3 IRadAn=         5 AccDes= 0.00D+00
 Harris functional with IExCor=  205 and IRadAn=       5 diagonalized for initial guess.
 HarFok:  IExCor=  205 AccDes= 0.00D+00 IRadAn=         5 IDoV= 1 UseB2=F ITyADJ=14
 ICtDFT=  3500011 ScaDFX=  1.000000  1.000000  1.000000  1.000000
 FoFCou: FMM=F IPFlag=           0 FMFlag=      100000 FMFlg1=           0
         NFxFlg=           0 DoJE=T BraDBF=F KetDBF=T FulRan=T
         wScrn=  0.000000 ICntrl=       500 IOpCl=  0 I1Cent=   200000004 NGrid=           0
         NMat0=    1 NMatS0=      1 NMatT0=    0 NMatD0=    1 NMtDS0=    0 NMtDT0=    0
 Symmetry not used in FoFCou.
 Harris En= -209.192227238216    
 JPrj=0 DoOrth=F DoCkMO=F.
 Leave Link  401 at Thu Feb 13 09:44:49 2025, MaxMem=   104857600 cpu:               0.5 elap:               0.5
 (Enter /sw/cluster/pub/apps//g16/l502.exe)
 Keep R1 ints in memory in canonical form, NReq=57748324.
 FoFCou: FMM=F IPFlag=           0 FMFlag=           0 FMFlg1=           0
         NFxFlg=           0 DoJE=F BraDBF=F KetDBF=F FulRan=T
         wScrn=  0.000000 ICntrl=       600 IOpCl=  0 I1Cent=           0 NGrid=           0
         NMat0=    1 NMatS0=  10585 NMatT0=    0 NMatD0=    1 NMtDS0=    0 NMtDT0=    0
 Symmetry not used in FoFCou.
 Two-electron integral symmetry not used.
 Closed shell SCF:
 Using DIIS extrapolation, IDIIS=  1040.
 NGot=   104857600 LenX=    48784083 LenY=    48761142
 Requested convergence on RMS density matrix=1.00D-08 within 128 cycles.
 Requested convergence on MAX density matrix=1.00D-06.
 Requested convergence on             energy=1.00D-06.
 No special actions if energy rises.

 Cycle   1  Pass 1  IDiag  1:
 E= -208.599971891095    
 DIIS: error= 7.04D-02 at cycle   1 NSaved=   1.
 NSaved= 1 IEnMin= 1 EnMin= -208.599971891095     IErMin= 1 ErrMin= 7.04D-02
 ErrMax= 7.04D-02  0.00D+00 EMaxC= 1.00D-01 BMatC= 4.68D-01 BMatP= 4.68D-01
 IDIUse=3 WtCom= 2.96D-01 WtEn= 7.04D-01
 Coeff-Com:  0.100D+01
 Coeff-En:   0.100D+01
 Coeff:      0.100D+01
 Gap=     0.461 Goal=   None    Shift=    0.000
 GapD=    0.461 DampG=2.000 DampE=0.500 DampFc=1.0000 IDamp=-1.
 RMSDP=6.58D-03 MaxDP=2.26D-01              OVMax= 1.83D-01

 Cycle   2  Pass 1  IDiag  1:
 E= -208.807699389711     Delta-E=       -0.207727498616 Rises=F Damp=F
 DIIS: error= 2.63D-02 at cycle   2 NSaved=   2.
 NSaved= 2 IEnMin= 2 EnMin= -208.807699389711     IErMin= 2 ErrMin= 2.63D-02
 ErrMax= 2.63D-02  0.00D+00 EMaxC= 1.00D-01 BMatC= 5.73D-02 BMatP= 4.68D-01
 IDIUse=3 WtCom= 7.37D-01 WtEn= 2.63D-01
 Coeff-Com:  0.187D+00 0.813D+00
 Coeff-En:   0.000D+00 0.100D+01
 Coeff:      0.138D+00 0.862D+00
 Gap=     0.372 Goal=   None    Shift=    0.000
 RMSDP=5.42D-03 MaxDP=1.81D-01 DE=-2.08D-01 OVMax= 7.97D-02

 Cycle   3  Pass 1  IDiag  1:
 E= -208.855594297448     Delta-E=       -0.047894907737 Rises=F Damp=F
 DIIS: error= 1.06D-02 at cycle   3 NSaved=   3.
 NSaved= 3 IEnMin= 3 EnMin= -208.855594297448     IErMin= 3 ErrMin= 1.06D-02
 ErrMax= 1.06D-02  0.00D+00 EMaxC= 1.00D-01 BMatC= 7.80D-03 BMatP= 5.73D-02
 IDIUse=3 WtCom= 8.94D-01 WtEn= 1.06D-01
 Coeff-Com: -0.199D-01 0.245D+00 0.775D+00
 Coeff-En:   0.000D+00 0.000D+00 0.100D+01
 Coeff:     -0.178D-01 0.219D+00 0.799D+00
 Gap=     0.336 Goal=   None    Shift=    0.000
 DSYEVD-2 returned Info=         291 IAlg= 4 N=   145 NDim=   145 NE2=      336282 trying  DSYEV.
 RMSDP=6.59D-04 MaxDP=1.83D-02 DE=-4.79D-02 OVMax= 3.19D-02

 Cycle   4  Pass 1  IDiag  1:
 E= -208.862999462121     Delta-E=       -0.007405164673 Rises=F Damp=F
 DIIS: error= 2.13D-03 at cycle   4 NSaved=   4.
 NSaved= 4 IEnMin= 4 EnMin= -208.862999462121     IErMin= 4 ErrMin= 2.13D-03
 ErrMax= 2.13D-03  0.00D+00 EMaxC= 1.00D-01 BMatC= 2.16D-04 BMatP= 7.80D-03
 IDIUse=3 WtCom= 9.79D-01 WtEn= 2.13D-02
 Coeff-Com: -0.758D-02 0.371D-01 0.199D+00 0.771D+00
 Coeff-En:   0.000D+00 0.000D+00 0.000D+00 0.100D+01
 Coeff:     -0.742D-02 0.363D-01 0.195D+00 0.776D+00
 Gap=     0.335 Goal=   None    Shift=    0.000
 DSYEVD-2 returned Info=         291 IAlg= 4 N=   145 NDim=   145 NE2=      336282 trying  DSYEV.
 RMSDP=2.10D-04 MaxDP=3.43D-03 DE=-7.41D-03 OVMax= 6.04D-03

 Cycle   5  Pass 1  IDiag  1:
 E= -208.863223482494     Delta-E=       -0.000224020373 Rises=F Damp=F
 DIIS: error= 1.21D-03 at cycle   5 NSaved=   5.
 NSaved= 5 IEnMin= 5 EnMin= -208.863223482494     IErMin= 5 ErrMin= 1.21D-03
 ErrMax= 1.21D-03  0.00D+00 EMaxC= 1.00D-01 BMatC= 2.03D-05 BMatP= 2.16D-04
 IDIUse=3 WtCom= 9.88D-01 WtEn= 1.21D-02
 Coeff-Com:  0.866D-03-0.209D-01-0.522D-01 0.143D+00 0.930D+00
 Coeff-En:   0.000D+00 0.000D+00 0.000D+00 0.000D+00 0.100D+01
 Coeff:      0.855D-03-0.207D-01-0.516D-01 0.141D+00 0.930D+00
 Gap=     0.336 Goal=   None    Shift=    0.000
 RMSDP=1.16D-04 MaxDP=1.78D-03 DE=-2.24D-04 OVMax= 4.37D-03

 Cycle   6  Pass 1  IDiag  1:
 E= -208.863267872400     Delta-E=       -0.000044389906 Rises=F Damp=F
 DIIS: error= 2.79D-04 at cycle   6 NSaved=   6.
 NSaved= 6 IEnMin= 6 EnMin= -208.863267872400     IErMin= 6 ErrMin= 2.79D-04
 ErrMax= 2.79D-04  0.00D+00 EMaxC= 1.00D-01 BMatC= 3.12D-06 BMatP= 2.03D-05
 IDIUse=3 WtCom= 9.97D-01 WtEn= 2.79D-03
 Coeff-Com:  0.716D-03-0.356D-02-0.179D-01-0.119D+00-0.219D-01 0.116D+01
 Coeff-En:   0.000D+00 0.000D+00 0.000D+00 0.000D+00 0.000D+00 0.100D+01
 Coeff:      0.714D-03-0.355D-02-0.178D-01-0.119D+00-0.218D-01 0.116D+01
 Gap=     0.336 Goal=   None    Shift=    0.000
 RMSDP=5.59D-05 MaxDP=1.43D-03 DE=-4.44D-05 OVMax= 1.95D-03

 Cycle   7  Pass 1  IDiag  1:
 E= -208.863277609678     Delta-E=       -0.000009737278 Rises=F Damp=F
 DIIS: error= 1.46D-04 at cycle   7 NSaved=   7.
 NSaved= 7 IEnMin= 7 EnMin= -208.863277609678     IErMin= 7 ErrMin= 1.46D-04
 ErrMax= 1.46D-04  0.00D+00 EMaxC= 1.00D-01 BMatC= 3.46D-07 BMatP= 3.12D-06
 IDIUse=3 WtCom= 9.99D-01 WtEn= 1.46D-03
 Coeff-Com: -0.103D-03 0.256D-02 0.745D-02-0.152D-01-0.809D-01-0.832D-01
 Coeff-Com:  0.117D+01
 Coeff-En:   0.000D+00 0.000D+00 0.000D+00 0.000D+00 0.000D+00 0.000D+00
 Coeff-En:   0.100D+01
 Coeff:     -0.103D-03 0.256D-02 0.744D-02-0.152D-01-0.808D-01-0.831D-01
 Coeff:      0.117D+01
 Gap=     0.336 Goal=   None    Shift=    0.000
 RMSDP=1.56D-05 MaxDP=4.00D-04 DE=-9.74D-06 OVMax= 8.88D-04

 Cycle   8  Pass 1  IDiag  1:
 E= -208.863279184116     Delta-E=       -0.000001574438 Rises=F Damp=F
 DIIS: error= 4.52D-05 at cycle   8 NSaved=   8.
 NSaved= 8 IEnMin= 8 EnMin= -208.863279184116     IErMin= 8 ErrMin= 4.52D-05
 ErrMax= 4.52D-05  0.00D+00 EMaxC= 1.00D-01 BMatC= 8.28D-08 BMatP= 3.46D-07
 IDIUse=1 WtCom= 1.00D+00 WtEn= 0.00D+00
 Coeff-Com: -0.194D-03 0.140D-02 0.570D-02 0.244D-01-0.768D-02-0.305D+00
 Coeff-Com:  0.204D+00 0.108D+01
 Coeff:     -0.194D-03 0.140D-02 0.570D-02 0.244D-01-0.768D-02-0.305D+00
 Coeff:      0.204D+00 0.108D+01
 Gap=     0.336 Goal=   None    Shift=    0.000
 RMSDP=7.64D-06 MaxDP=1.26D-04 DE=-1.57D-06 OVMax= 4.48D-04

 Cycle   9  Pass 1  IDiag  1:
 E= -208.863279448985     Delta-E=       -0.000000264870 Rises=F Damp=F
 DIIS: error= 6.99D-06 at cycle   9 NSaved=   9.
 NSaved= 9 IEnMin= 9 EnMin= -208.863279448985     IErMin= 9 ErrMin= 6.99D-06
 ErrMax= 6.99D-06  0.00D+00 EMaxC= 1.00D-01 BMatC= 1.60D-09 BMatP= 8.28D-08
 IDIUse=1 WtCom= 1.00D+00 WtEn= 0.00D+00
 Coeff-Com:  0.340D-04-0.336D-03-0.136D-02-0.333D-02 0.479D-02 0.619D-01
 Coeff-Com: -0.761D-01-0.268D+00 0.128D+01
 Coeff:      0.340D-04-0.336D-03-0.136D-02-0.333D-02 0.479D-02 0.619D-01
 Coeff:     -0.761D-01-0.268D+00 0.128D+01
 Gap=     0.336 Goal=   None    Shift=    0.000
 RMSDP=1.76D-06 MaxDP=5.98D-05 DE=-2.65D-07 OVMax= 5.26D-05

 Cycle  10  Pass 1  IDiag  1:
 E= -208.863279454742     Delta-E=       -0.000000005756 Rises=F Damp=F
 DIIS: error= 1.24D-06 at cycle  10 NSaved=  10.
 NSaved=10 IEnMin=10 EnMin= -208.863279454742     IErMin=10 ErrMin= 1.24D-06
 ErrMax= 1.24D-06  0.00D+00 EMaxC= 1.00D-01 BMatC= 1.04D-10 BMatP= 1.60D-09
 IDIUse=1 WtCom= 1.00D+00 WtEn= 0.00D+00
 Coeff-Com: -0.528D-05 0.723D-04 0.302D-03 0.700D-03-0.232D-02-0.132D-01
 Coeff-Com:  0.278D-01 0.521D-01-0.470D+00 0.140D+01
 Coeff:     -0.528D-05 0.723D-04 0.302D-03 0.700D-03-0.232D-02-0.132D-01
 Coeff:      0.278D-01 0.521D-01-0.470D+00 0.140D+01
 Gap=     0.336 Goal=   None    Shift=    0.000
 RMSDP=3.65D-07 MaxDP=9.71D-06 DE=-5.76D-09 OVMax= 1.04D-05

 Cycle  11  Pass 1  IDiag  1:
 E= -208.863279455031     Delta-E=       -0.000000000289 Rises=F Damp=F
 DIIS: error= 3.68D-07 at cycle  11 NSaved=  11.
 NSaved=11 IEnMin=11 EnMin= -208.863279455031     IErMin=11 ErrMin= 3.68D-07
 ErrMax= 3.68D-07  0.00D+00 EMaxC= 1.00D-01 BMatC= 6.28D-12 BMatP= 1.04D-10
 IDIUse=1 WtCom= 1.00D+00 WtEn= 0.00D+00
 Coeff-Com: -0.305D-06-0.220D-05-0.216D-04 0.443D-04 0.305D-03 0.690D-03
 Coeff-Com: -0.311D-02-0.422D-02 0.768D-01-0.422D+00 0.135D+01
 Coeff:     -0.305D-06-0.220D-05-0.216D-04 0.443D-04 0.305D-03 0.690D-03
 Coeff:     -0.311D-02-0.422D-02 0.768D-01-0.422D+00 0.135D+01
 Gap=     0.336 Goal=   None    Shift=    0.000
 RMSDP=7.20D-08 MaxDP=9.73D-07 DE=-2.89D-10 OVMax= 2.05D-06

 Cycle  12  Pass 1  IDiag  1:
 E= -208.863279455048     Delta-E=       -0.000000000017 Rises=F Damp=F
 DIIS: error= 6.43D-08 at cycle  12 NSaved=  12.
 NSaved=12 IEnMin=12 EnMin= -208.863279455048     IErMin=12 ErrMin= 6.43D-08
 ErrMax= 6.43D-08  0.00D+00 EMaxC= 1.00D-01 BMatC= 1.86D-13 BMatP= 6.28D-12
 IDIUse=1 WtCom= 1.00D+00 WtEn= 0.00D+00
 Coeff-Com:  0.306D-06-0.359D-05-0.136D-04-0.407D-04 0.508D-04 0.698D-03
 Coeff-Com: -0.109D-02-0.270D-02 0.164D-01-0.227D-01-0.188D+00 0.120D+01
 Coeff:      0.306D-06-0.359D-05-0.136D-04-0.407D-04 0.508D-04 0.698D-03
 Coeff:     -0.109D-02-0.270D-02 0.164D-01-0.227D-01-0.188D+00 0.120D+01
 Gap=     0.336 Goal=   None    Shift=    0.000
 RMSDP=1.48D-08 MaxDP=4.06D-07 DE=-1.70D-11 OVMax= 4.35D-07

 Cycle  13  Pass 1  IDiag  1:
 E= -208.863279455049     Delta-E=       -0.000000000001 Rises=F Damp=F
 DIIS: error= 7.57D-09 at cycle  13 NSaved=  13.
 NSaved=13 IEnMin=13 EnMin= -208.863279455049     IErMin=13 ErrMin= 7.57D-09
 ErrMax= 7.57D-09  0.00D+00 EMaxC= 1.00D-01 BMatC= 4.13D-15 BMatP= 1.86D-13
 IDIUse=1 WtCom= 1.00D+00 WtEn= 0.00D+00
 Coeff-Com: -0.437D-07 0.689D-06 0.311D-05 0.649D-05-0.229D-04-0.135D-03
 Coeff-Com:  0.299D-03 0.564D-03-0.491D-02 0.149D-01 0.329D-02-0.246D+00
 Coeff-Com:  0.123D+01
 Coeff:     -0.437D-07 0.689D-06 0.311D-05 0.649D-05-0.229D-04-0.135D-03
 Coeff:      0.299D-03 0.564D-03-0.491D-02 0.149D-01 0.329D-02-0.246D+00
 Coeff:      0.123D+01
 Gap=     0.336 Goal=   None    Shift=    0.000
 RMSDP=3.05D-09 MaxDP=1.31D-07 DE=-1.42D-12 OVMax= 3.72D-08

 SCF Done:  E(RHF) =  -208.863279455     A.U. after   13 cycles
            NFock= 13  Conv=0.31D-08     -V/T= 2.0014
 KE= 2.085678996485D+02 PE=-8.088051100074D+02 EE= 2.304984844512D+02
 Leave Link  502 at Thu Feb 13 09:44:50 2025, MaxMem=   104857600 cpu:               1.1 elap:               1.3
 (Enter /sw/cluster/pub/apps//g16/l801.exe)
 ExpMin= 3.60D-02 ExpMax= 6.29D+03 ExpMxC= 9.49D+02 IAcc=3 IRadAn=         5 AccDes= 0.00D+00
 HarFok:  IExCor=  205 AccDes= 0.00D+00 IRadAn=         5 IDoV=-2 UseB2=F ITyADJ=14
 ICtDFT= 12500011 ScaDFX=  1.000000  1.000000  1.000000  1.000000
 Largest valence mixing into a core orbital is  1.33D-04
 Largest core mixing into a valence orbital is  4.11D-05
 Range of M.O.s used for correlation:     6   145
 NBasis=   145 NAE=    18 NBE=    18 NFC=     5 NFV=     0
 NROrb=    140 NOA=    13 NOB=    13 NVA=   127 NVB=   127

 **** Warning!!: The largest alpha MO coefficient is  0.13663300D+03

 Leave Link  801 at Thu Feb 13 09:44:50 2025, MaxMem=   104857600 cpu:               0.1 elap:               0.2
 (Enter /sw/cluster/pub/apps//g16/l906.exe)
 Frozen-core derivative calculation, NFC=   5 NFV=   0.
 FulOut=F Deriv=T AODrv=F NAtomX=    10
   MMem=          59  MDisk=          13 MDiskD=          13
  W3Min=      391500 MinDsk=      649025 NBas6D=         150
 NBas2D=       11535    NTT=       11325    LW2=     2040000
    MDV=   104601444 MDiskM=        9500 NBas2p=       11528
 Fully direct method using O(ONN) memory.
 IMap=   1   2   3   4   5   6   7   8   9  10  11  12  13  14  15  16  17  18
 JobTyp=1 Pass  1:  I=   6 to  18 NPSUse=  1 ParTrn=F ParDer=F DoDerP=T.
 Spin components of T(2) and E(2):
     alpha-alpha T2 =       0.3497785522D-01 E2=     -0.9666225411D-01
     alpha-beta  T2 =       0.1881495632D+00 E2=     -0.5449011283D+00
     beta-beta   T2 =       0.3497785522D-01 E2=     -0.9666225411D-01
 The integrals were generated   1 times.
 ANorm=    0.1121652920D+01
 E2 =    -0.7382256365D+00 EUMP2 =    -0.20960150509153D+03
 Leave Link  906 at Thu Feb 13 09:44:54 2025, MaxMem=   104857600 cpu:               2.8 elap:               3.0
 (Enter /sw/cluster/pub/apps//g16/l1002.exe)
 Minotr:  Closed shell wavefunction.
          Computing MP2/KS-MP2 derivatives.
          Using Z-Vector for PSCF gradient.
          Skipping F1 and S1 gradient terms here.
          Frozen-core window.
          Direct CPHF calculation.
          Differentiating once with respect to electric field.
                with respect to dipole field.
          Electric field/nuclear overlap derivatives assumed to be zero.
          Requested convergence is 1.0D-10 RMS, and 1.0D-09 maximum.
          NewPWx=F KeepS1=T KeepF1=T KeepIn=T MapXYZ=F SortEE=F KeepMc=T.
 Keep R1 ints in memory in canonical form, NReq=57749488.
 FoFCou: FMM=F IPFlag=           0 FMFlag=           0 FMFlg1=           0
         NFxFlg=           0 DoJE=F BraDBF=F KetDBF=F FulRan=T
         wScrn=  0.000000 ICntrl=       600 IOpCl=  0 I1Cent=           0 NGrid=           0
         NMat0=    1 NMatS0=  10585 NMatT0=    0 NMatD0=    1 NMtDS0=    0 NMtDT0=    0
 Symmetry not used in FoFCou.
 Two-electron integral symmetry not used.
          MDV=     104857600 using IRadAn=       5.
          Solving linear equations separately, MaxMat=       0.
          There are     1 degrees of freedom in the 1st order CPHF.  IDoFFX=0 NUNeed=     1.
 LinEq1:  Iter=  0 NonCon=     1 RMS=4.06D-03 Max=6.90D-02 NDo=     1
 AX will form     1 AO Fock derivatives at one time.
 LinEq1:  Iter=  1 NonCon=     1 RMS=1.04D-03 Max=1.26D-02 NDo=     1
 LinEq1:  Iter=  2 NonCon=     1 RMS=4.61D-04 Max=1.04D-02 NDo=     1
 LinEq1:  Iter=  3 NonCon=     1 RMS=1.21D-04 Max=2.32D-03 NDo=     1
 LinEq1:  Iter=  4 NonCon=     1 RMS=4.55D-05 Max=7.60D-04 NDo=     1
 LinEq1:  Iter=  5 NonCon=     1 RMS=1.63D-05 Max=2.95D-04 NDo=     1
 LinEq1:  Iter=  6 NonCon=     1 RMS=2.98D-06 Max=3.66D-05 NDo=     1
 LinEq1:  Iter=  7 NonCon=     1 RMS=9.64D-07 Max=9.90D-06 NDo=     1
 LinEq1:  Iter=  8 NonCon=     1 RMS=2.13D-07 Max=2.47D-06 NDo=     1
 LinEq1:  Iter=  9 NonCon=     1 RMS=2.80D-08 Max=2.48D-07 NDo=     1
 LinEq1:  Iter= 10 NonCon=     1 RMS=4.73D-09 Max=4.27D-08 NDo=     1
 LinEq1:  Iter= 11 NonCon=     1 RMS=7.18D-10 Max=8.40D-09 NDo=     1
 LinEq1:  Iter= 12 NonCon=     1 RMS=1.12D-10 Max=1.13D-09 NDo=     1
 LinEq1:  Iter= 13 NonCon=     0 RMS=1.52D-11 Max=1.25D-10 NDo=     1
 Linear equations converged to 1.000D-10 1.000D-09 after    13 iterations.
 End of Minotr F.D. properties file   721 does not exist.
 End of Minotr F.D. properties file   722 does not exist.
 End of Minotr F.D. properties file   788 does not exist.
 Leave Link 1002 at Thu Feb 13 09:44:56 2025, MaxMem=   104857600 cpu:               1.4 elap:               1.4
 (Enter /sw/cluster/pub/apps//g16/l601.exe)
 Copying SCF densities to generalized density rwf, IOpCl= 0 IROHF=0.

 **********************************************************************

            Population analysis using the MP2 density.

 **********************************************************************

 Alpha  occ. eigenvalues --  -15.60707 -11.25531 -11.25527 -11.21210 -11.21108
 Alpha  occ. eigenvalues --   -1.29139  -1.04291  -0.97852  -0.79401  -0.76803
 Alpha  occ. eigenvalues --   -0.73752  -0.59398  -0.58415  -0.56567  -0.54920
 Alpha  occ. eigenvalues --   -0.52909  -0.34656  -0.29826
 Alpha virt. eigenvalues --    0.03800   0.04948   0.05391   0.07113   0.07553
 Alpha virt. eigenvalues --    0.11143   0.13439   0.13820   0.14625   0.15496
 Alpha virt. eigenvalues --    0.16240   0.16334   0.18047   0.18291   0.19595
 Alpha virt. eigenvalues --    0.19951   0.20043   0.21188   0.21571   0.22439
 Alpha virt. eigenvalues --    0.23315   0.24746   0.28059   0.28301   0.28535
 Alpha virt. eigenvalues --    0.33466   0.34033   0.37492   0.39083   0.40714
 Alpha virt. eigenvalues --    0.41490   0.43956   0.44506   0.46213   0.53595
 Alpha virt. eigenvalues --    0.60765   0.63255   0.64783   0.73083   0.73313
 Alpha virt. eigenvalues --    0.74125   0.75500   0.78786   0.79477   0.80152
 Alpha virt. eigenvalues --    0.84951   0.85726   0.92417   0.95487   0.96150
 Alpha virt. eigenvalues --    1.01173   1.02462   1.02906   1.05958   1.06847
 Alpha virt. eigenvalues --    1.06915   1.10796   1.13015   1.19764   1.20116
 Alpha virt. eigenvalues --    1.24079   1.26809   1.33208   1.37432   1.42016
 Alpha virt. eigenvalues --    1.42900   1.43243   1.65342   1.79099   1.80853
 Alpha virt. eigenvalues --    1.82310   1.83885   1.85724   1.89861   1.94031
 Alpha virt. eigenvalues --    1.99375   2.02234   2.04654   2.10051   2.10943
 Alpha virt. eigenvalues --    2.15202   2.20484   2.22954   2.29303   2.29396
 Alpha virt. eigenvalues --    2.30065   2.31127   2.47031   2.48496   2.60916
 Alpha virt. eigenvalues --    2.70384   2.74477   2.78772   2.83547   2.85493
 Alpha virt. eigenvalues --    2.94997   2.95425   3.03003   3.04454   3.05126
 Alpha virt. eigenvalues --    3.08287   3.09546   3.12607   3.12976   3.20954
 Alpha virt. eigenvalues --    3.22525   3.31333   3.31683   3.43239   3.64076
 Alpha virt. eigenvalues --    3.72443   3.85062   3.90008   3.91757   3.98558
 Alpha virt. eigenvalues --    4.19617   4.34949   4.47905   4.50591   4.72097
 Alpha virt. eigenvalues --    5.40662   5.60438  24.87947  25.07157  25.30390
 Alpha virt. eigenvalues --   25.36402  37.02839
          Condensed to atoms (all electrons):
               1          2          3          4          5          6
     1  C    6.584272  -1.155074   1.345158  -0.790743  -0.004852  -0.074309
     2  C   -1.155074   7.678078  -1.996551   1.345158  -0.041960   0.021298
     3  C    1.345158  -1.996551   7.678078  -1.155074  -0.041960   0.021298
     4  C   -0.790743   1.345158  -1.155074   6.584272  -0.004852  -0.074309
     5  N   -0.004852  -0.041960  -0.041960  -0.004852   6.920433   0.398490
     6  H   -0.074309   0.021298   0.021298  -0.074309   0.398490   0.418773
     7  H    0.450904  -0.093113   0.039321   0.002537  -0.081262  -0.006764
     8  H   -0.173979   0.556453  -0.179264   0.070580   0.023192   0.001097
     9  H    0.070580  -0.179264   0.556453  -0.173979   0.023192   0.001097
    10  H    0.002537   0.039321  -0.093113   0.450904  -0.081262  -0.006764
               7          8          9         10
     1  C    0.450904  -0.173979   0.070580   0.002537
     2  C   -0.093113   0.556453  -0.179264   0.039321
     3  C    0.039321  -0.179264   0.556453  -0.093113
     4  C    0.002537   0.070580  -0.173979   0.450904
     5  N   -0.081262   0.023192   0.023192  -0.081262
     6  H   -0.006764   0.001097   0.001097  -0.006764
     7  H    0.538710  -0.011465   0.001051  -0.001672
     8  H   -0.011465   0.557909  -0.017194   0.001051
     9  H    0.001051  -0.017194   0.557909  -0.011465
    10  H   -0.001672   0.001051  -0.011465   0.538710
 Mulliken charges:
               1
     1  C   -0.254495
     2  C   -0.174346
     3  C   -0.174346
     4  C   -0.254495
     5  N   -0.109158
     6  H    0.300093
     7  H    0.161753
     8  H    0.171620
     9  H    0.171620
    10  H    0.161753
 Sum of Mulliken charges =  -0.00000
 Mulliken charges with hydrogens summed into heavy atoms:
               1
     1  C   -0.092741
     2  C   -0.002726
     3  C   -0.002726
     4  C   -0.092741
     5  N    0.190935
 Electronic spatial extent (au):  <R**2>=            307.7528
 Charge=             -0.0000 electrons
 Dipole moment (field-independent basis, Debye):
    X=             -0.0000    Y=              1.9452    Z=              0.0000  Tot=              1.9452
 Quadrupole moment (field-independent basis, Debye-Ang):
   XX=            -27.5867   YY=            -24.2378   ZZ=            -35.0248
   XY=             -0.0000   XZ=             -0.0000   YZ=              0.0000
 Traceless Quadrupole moment (field-independent basis, Debye-Ang):
   XX=              1.3630   YY=              4.7120   ZZ=             -6.0750
   XY=             -0.0000   XZ=             -0.0000   YZ=              0.0000
 Octapole moment (field-independent basis, Debye-Ang**2):
  XXX=             -0.0000  YYY=             12.6627  ZZZ=              0.0000  XYY=             -0.0000
  XXY=              2.7526  XXZ=              0.0000  XZZ=              0.0000  YZZ=              2.3629
  YYZ=              0.0000  XYZ=              0.0000
 Hexadecapole moment (field-independent basis, Debye-Ang**3):
 XXXX=           -183.5278 YYYY=           -155.2014 ZZZZ=            -44.6209 XXXY=             -0.0000
 XXXZ=             -0.0000 YYYX=             -0.0000 YYYZ=             -0.0000 ZZZX=             -0.0000
 ZZZY=             -0.0000 XXYY=            -57.9091 XXZZ=            -47.3873 YYZZ=            -43.9430
 XXYZ=             -0.0000 YYXZ=             -0.0000 ZZXY=             -0.0000
 N-N= 1.608754464526D+02 E-N=-8.094852396023D+02  KE= 2.095070812780D+02
 No NMR shielding tensors so no spin-rotation constants.
 Leave Link  601 at Thu Feb 13 09:44:56 2025, MaxMem=   104857600 cpu:               0.1 elap:               0.1
 (Enter /sw/cluster/pub/apps//g16/l9999.exe)
 1\1\GINC-N01\SP\RMP2-FC\6-311++G(d,p)\C4H5N1\UNKNOWN\13-Feb-2025\0\\#P
  MP2/6-311++G** nosymm Density=MP2\\CH-\\0,1\C,0,1.12488609,0.33117703
 ,0.\C,0,0.71238205,-0.98235907,0.\C,0,-0.71238205,-0.98235907,0.\C,0,-
 1.12488609,0.33117703,0.\N,0,0.,1.12157009,0.\H,0,0.,2.12760216,0.\H,0
 ,2.11217016,0.76325706,0.\H,0,1.3594161,-1.84546214,0.\H,0,-1.3594161,
 -1.84546214,0.\H,0,-2.11217016,0.76325706,0.\\Version=ES64L-G16RevA.03
 \HF=-208.8632795\MP2=-209.6015051\RMSD=3.054e-09\Dipole=0.,0.7653059,0
 .\Quadrupole=1.0133767,3.5032663,-4.516643,0.,0.,0.\PG=C02V [C2(N1H1),
 SGV(C4H4)]\\@


 MEN HAVE BECOME THE TOOLS OF THEIR TOOLS... THOREAU   
 Job cpu time:       0 days  0 hours  0 minutes  6.2 seconds.
 Elapsed time:       0 days  0 hours  0 minutes  6.6 seconds.
 File lengths (MBytes):  RWF=     11 Int=      0 D2E=      0 Chk=      4 Scr=      1
 Normal termination of Gaussian 16 at Thu Feb 13 09:44:56 2025.
