 Entering Gaussian System, Link 0=g09
 Initial command:
 /apps/software//g09/l1.exe /scratch/itamar/2436.cluster.abaxnet/Gau-27182.inp -scrdir=/scratch/itamar/2436.cluster.abaxnet/
 Entering Link 1 = /apps/software//g09/l1.exe PID=     27183.
  
 Copyright (c) 1988,1990,1992,1993,1995,1998,2003,2009, Gaussian, Inc.
                  All Rights Reserved.
  
 This is part of the Gaussian(R) 09 program.  It is based on
 the Gaussian(R) 03 system (copyright 2003, Gaussian, Inc.),
 the Gaussian(R) 98 system (copyright 1998, Gaussian, Inc.),
 the Gaussian(R) 94 system (copyright 1995, Gaussian, Inc.),
 the Gaussian 92(TM) system (copyright 1992, Gaussian, Inc.),
 the Gaussian 90(TM) system (copyright 1990, Gaussian, Inc.),
 the Gaussian 88(TM) system (copyright 1988, Gaussian, Inc.),
 the Gaussian 86(TM) system (copyright 1986, Carnegie Mellon
 University), and the Gaussian 82(TM) system (copyright 1983,
 Carnegie Mellon University). Gaussian is a federally registered
 trademark of Gaussian, Inc.
  
 This software contains proprietary and confidential information,
 including trade secrets, belonging to Gaussian, Inc.
  
 This software is provided under written license and may be
 used, copied, transmitted, or stored only in accord with that
 written license.
  
 The following legend is applicable only to US Government
 contracts under FAR:
  
                    RESTRICTED RIGHTS LEGEND
  
 Use, reproduction and disclosure by the US Government is
 subject to restrictions as set forth in subparagraphs (a)
 and (c) of the Commercial Computer Software - Restricted
 Rights clause in FAR 52.227-19.
  
 Gaussian, Inc.
 340 Quinnipiac St., Bldg. 40, Wallingford CT 06492
  
  
 ---------------------------------------------------------------
 Warning -- This program may not be used in any manner that
 competes with the business of Gaussian, Inc. or will provide
 assistance to any competitor of Gaussian, Inc.  The licensee
 of this program is prohibited from giving any competitor of
 Gaussian, Inc. access to this program.  By using this program,
 the user acknowledges that Gaussian, Inc. is engaged in the
 business of creating and licensing software in the field of
 computational chemistry and represents and warrants to the
 licensee that it is not a competitor of Gaussian, Inc. and that
 it will not use this program in any manner prohibited above.
 ---------------------------------------------------------------
  

 Cite this work as:
 Gaussian 09, Revision A.02,
 M. J. Frisch, G. W. Trucks, H. B. Schlegel, G. E. Scuseria, 
 M. A. Robb, J. R. Cheeseman, G. Scalmani, V. Barone, B. Mennucci, 
 G. A. Petersson, H. Nakatsuji, M. Caricato, X. Li, H. P. Hratchian, 
 A. F. Izmaylov, J. Bloino, G. Zheng, J. L. Sonnenberg, M. Hada, 
 M. Ehara, K. Toyota, R. Fukuda, J. Hasegawa, M. Ishida, T. Nakajima, 
 Y. Honda, O. Kitao, H. Nakai, T. Vreven, J. A. Montgomery, Jr., 
 J. E. Peralta, F. Ogliaro, M. Bearpark, J. J. Heyd, E. Brothers, 
 K. N. Kudin, V. N. Staroverov, R. Kobayashi, J. Normand, 
 K. Raghavachari, A. Rendell, J. C. Burant, S. S. Iyengar, J. Tomasi, 
 M. Cossi, N. Rega, J. M. Millam, M. Klene, J. E. Knox, J. B. Cross, 
 V. Bakken, C. Adamo, J. Jaramillo, R. Gomperts, R. E. Stratmann, 
 O. Yazyev, A. J. Austin, R. Cammi, C. Pomelli, J. W. Ochterski, 
 R. L. Martin, K. Morokuma, V. G. Zakrzewski, G. A. Voth, 
 P. Salvador, J. J. Dannenberg, S. Dapprich, A. D. Daniels, 
 O. Farkas, J. B. Foresman, J. V. Ortiz, J. Cioslowski, 
 and D. J. Fox, Gaussian, Inc., Wallingford CT, 2009.
 
 ******************************************
 Gaussian 09:  EM64L-G09RevA.02 11-Jun-2009
                 3-Dec-2021 
 ******************************************
 %Mem=3800MB
 %NProcShared=6
 Will use up to    6 processors via shared memory.
 %chk=/home/itamar/Aromaticity-test-set/T11-old-T12-Clar-systems/Phenanthrene/phe
 nan.chk
 -----------------------------
 #P MP2/6-311++G** DENSITY=MP2
 -----------------------------
 1/30=1,38=1/1;
 2/12=2,17=6,18=5,40=1/2;
 3/5=4,6=6,7=1111,11=9,16=1,25=1,30=1,71=1/1,2,3;
 4//1;
 5/5=2,38=5/2;
 8/6=4,10=2/1;
 9/15=1,16=-3/6;
 10/5=1,13=10/2;
 6/7=2,8=2,9=2,10=2,22=2/1;
 99/5=1,9=1/99;
 Leave Link    1 at Fri Dec  3 12:25:54 2021, MaxMem=  498073600 cpu:       0.3
 (Enter /apps/software//g09/l101.exe)
 ------
 Phenan
 ------
 Symbolic Z-matrix:
 Charge =  0 Multiplicity = 1
 6                     1.90731  -3.01717   0. 
 6                     2.68563  -1.84668   0. 
 6                     2.08024  -0.60533   0. 
 6                     0.67346  -0.47042   0. 
 6                    -0.11001  -1.66032   0. 
 6                     0.53216  -2.91924   0. 
 6                    -1.5413   -1.56873   0. 
 6                    -2.16868  -0.36516   0. 
 6                    -1.42414   0.86057   0. 
 6                     0.        0.8214    0. 
 6                     0.69492   2.05193   0. 
 1                     1.77716   2.06141   0. 
 1                     2.70762   0.27656   0. 
 6                     0.02386   3.25908   0. 
 6                    -1.38144   3.29134   0. 
 6                    -2.08856   2.10792   0. 
 1                     2.38708  -3.98936   0. 
 1                     3.76764  -1.91696   0. 
 1                    -0.08018  -3.81516   0. 
 1                    -2.11611  -2.48903   0. 
 1                    -3.25231  -0.30932   0. 
 1                     0.58582   4.18637   0. 
 1                    -1.90373   4.24134   0. 
 1                    -3.17372   2.11893   0. 
 
 NAtoms=     24 NQM=     24 NQMF=      0 NMic=      0 NMicF=      0 NTot=     24.
                    Isotopes and Nuclear Properties:
 (Nuclear quadrupole moments (NQMom) in fm**2, nuclear magnetic moments (NMagM)
  in nuclear magnetons)

  Atom         1           2           3           4           5           6           7           8           9          10
 IAtWgt=          12          12          12          12          12          12          12          12          12          12
 AtmWgt=  12.0000000  12.0000000  12.0000000  12.0000000  12.0000000  12.0000000  12.0000000  12.0000000  12.0000000  12.0000000
 NucSpn=           0           0           0           0           0           0           0           0           0           0
 AtZEff=   0.0000000   0.0000000   0.0000000   0.0000000   0.0000000   0.0000000   0.0000000   0.0000000   0.0000000   0.0000000
 NQMom=    0.0000000   0.0000000   0.0000000   0.0000000   0.0000000   0.0000000   0.0000000   0.0000000   0.0000000   0.0000000
 NMagM=    0.0000000   0.0000000   0.0000000   0.0000000   0.0000000   0.0000000   0.0000000   0.0000000   0.0000000   0.0000000

  Atom        11          12          13          14          15          16          17          18          19          20
 IAtWgt=          12           1           1          12          12          12           1           1           1           1
 AtmWgt=  12.0000000   1.0078250   1.0078250  12.0000000  12.0000000  12.0000000   1.0078250   1.0078250   1.0078250   1.0078250
 NucSpn=           0           1           1           0           0           0           1           1           1           1
 AtZEff=   0.0000000   0.0000000   0.0000000   0.0000000   0.0000000   0.0000000   0.0000000   0.0000000   0.0000000   0.0000000
 NQMom=    0.0000000   0.0000000   0.0000000   0.0000000   0.0000000   0.0000000   0.0000000   0.0000000   0.0000000   0.0000000
 NMagM=    0.0000000   2.7928460   2.7928460   0.0000000   0.0000000   0.0000000   2.7928460   2.7928460   2.7928460   2.7928460

  Atom        21          22          23          24
 IAtWgt=           1           1           1           1
 AtmWgt=   1.0078250   1.0078250   1.0078250   1.0078250
 NucSpn=           1           1           1           1
 AtZEff=   0.0000000   0.0000000   0.0000000   0.0000000
 NQMom=    0.0000000   0.0000000   0.0000000   0.0000000
 NMagM=    2.7928460   2.7928460   2.7928460   2.7928460
 Leave Link  101 at Fri Dec  3 12:25:54 2021, MaxMem=  498073600 cpu:       0.3
 (Enter /apps/software//g09/l202.exe)
                          Input orientation:                          
 ---------------------------------------------------------------------
 Center     Atomic      Atomic             Coordinates (Angstroms)
 Number     Number       Type             X           Y           Z
 ---------------------------------------------------------------------
      1          6           0        1.907313   -3.017175    0.000000
      2          6           0        2.685629   -1.846679    0.000000
      3          6           0        2.080243   -0.605325    0.000000
      4          6           0        0.673458   -0.470416    0.000000
      5          6           0       -0.110005   -1.660320    0.000000
      6          6           0        0.532164   -2.919243    0.000000
      7          6           0       -1.541303   -1.568725    0.000000
      8          6           0       -2.168682   -0.365155    0.000000
      9          6           0       -1.424136    0.860572    0.000000
     10          6           0        0.000000    0.821402    0.000000
     11          6           0        0.694915    2.051932    0.000000
     12          1           0        1.777163    2.061414    0.000000
     13          1           0        2.707622    0.276555    0.000000
     14          6           0        0.023855    3.259080    0.000000
     15          6           0       -1.381438    3.291335    0.000000
     16          6           0       -2.088558    2.107921    0.000000
     17          1           0        2.387079   -3.989357    0.000000
     18          1           0        3.767637   -1.916957    0.000000
     19          1           0       -0.080180   -3.815163    0.000000
     20          1           0       -2.116109   -2.489029    0.000000
     21          1           0       -3.252311   -0.309323    0.000000
     22          1           0        0.585819    4.186369    0.000000
     23          1           0       -1.903732    4.241343    0.000000
     24          1           0       -3.173718    2.118929    0.000000
 ---------------------------------------------------------------------
                    Distance matrix (angstroms):
                    1          2          3          4          5
     1  C    0.000000
     2  C    1.405645   0.000000
     3  C    2.418042   1.381105   0.000000
     4  C    2.829908   2.437813   1.413239   0.000000
     5  C    2.431178   2.801839   2.431090   1.424670   0.000000
     6  C    1.378632   2.405786   2.784020   2.452900   1.413247
     7  C    3.740449   4.236061   3.747497   2.472134   1.434226
     8  C    4.862812   5.075357   4.255707   2.844089   2.432201
     9  C    5.112287   4.921319   3.798622   2.484236   2.842857
    10  C    4.286317   3.785665   2.522491   1.456825   2.484159
    11  C    5.212078   4.377455   2.996690   2.522439   3.798514
    12  H    5.080256   4.012294   2.683907   2.761943   4.172854
    13  H    3.389565   2.123348   1.082274   2.166977   3.419138
    14  C    6.552770   5.757935   4.377483   3.785647   4.921221
    15  C    7.114294   6.552879   5.212216   4.286417   5.112282
    16  C    6.498738   6.199332   4.973993   3.778433   4.256091
    17  H    1.084119   2.163377   3.397914   3.914006   3.414651
    18  H    2.161316   1.084288   2.137212   3.415615   3.886125
    19  H    2.141708   3.394794   3.869171   3.428601   2.155049
    20  H    4.057938   4.844512   4.599751   3.443324   2.170533
    21  H    5.827022   6.133726   5.340763   3.929073   3.420421
    22  H    7.323755   6.388026   5.019326   4.657610   5.887949
    23  H    8.198180   7.624057   6.273934   5.370529   6.168232
    24  H    7.224710   7.075167   5.918249   4.637399   4.865086
                    6          7          8          9         10
     6  C    0.000000
     7  C    2.474503   0.000000
     8  C    3.717248   1.357271   0.000000
     9  C    4.256068   2.432121   1.434139   0.000000
    10  C    3.778310   2.843998   2.472064   1.424675   0.000000
    11  C    4.973838   4.255564   3.747332   2.430991   1.413192
    12  H    5.133904   4.918346   4.632270   3.419113   2.167011
    13  H    3.865972   4.632324   4.918347   4.172829   2.761897
    14  C    6.199198   5.075177   4.235835   2.801699   2.437795
    15  C    6.498704   4.862689   3.740277   2.431138   2.830007
    16  C    5.669265   3.717151   2.474374   1.413271   2.452999
    17  H    2.141461   4.614287   5.821495   6.168239   5.370433
    18  H    3.387161   5.320349   6.135794   5.888054   4.657649
    19  H    1.085190   2.679807   4.032914   4.865050   4.637258
    20  H    2.682990   1.085063   2.124525   3.420329   3.928978
    21  H    4.597166   2.124533   1.085066   2.170456   3.443264
    22  H    7.105815   6.135614   5.320117   3.885981   3.415580
    23  H    7.563569   5.821361   4.614111   3.414619   3.914102
    24  H    6.254338   4.032812   2.679696   2.155110   3.428711
                   11         12         13         14         15
    11  C    0.000000
    12  H    1.082290   0.000000
    13  H    2.683832   2.012828   0.000000
    14  C    1.381133   2.123321   4.012239   0.000000
    15  C    2.418132   3.389611   5.080286   1.405663   0.000000
    16  C    2.784036   3.866001   5.133931   2.405713   1.378582
    17  H    6.273802   6.081433   4.277938   7.623953   8.198183
    18  H    5.019333   4.448530   2.436212   6.388056   7.323884
    19  H    5.918072   6.163106   4.951161   7.075008   7.224651
    20  H    5.340616   5.988664   5.560291   6.133531   5.826864
    21  H    4.599578   5.560216   5.988660   4.844251   4.057697
    22  H    2.137223   2.436131   4.448448   1.084282   2.161293
    23  H    3.398012   4.277976   6.081458   2.163431   1.084115
    24  H    3.869213   4.951215   6.163157   3.394763   2.141682
                   16         17         18         19         20
    16  C    0.000000
    17  H    7.563605   0.000000
    18  H    7.105960   2.490137   0.000000
    19  H    6.254319   2.473401   4.290557   0.000000
    20  H    4.597033   4.746545   5.911492   2.429740   0.000000
    21  H    2.682795   6.733897   7.201677   4.727931   2.458063
    22  H    3.387069   8.371800   6.882918   8.029201   7.201483
    23  H    2.141413   9.281998   8.371922   8.260305   6.733722
    24  H    1.085216   8.260364   8.029370   6.692042   4.727770
                   21         22         23         24
    21  H    0.000000
    22  H    5.911217   0.000000
    23  H    4.746286   2.490158   0.000000
    24  H    2.429524   4.290504   2.473359   0.000000
 Stoichiometry    C14H10
 Framework group  CS[SG(C14H10)]
 Deg. of freedom    45
 Full point group                 CS      NOp   2
 Largest Abelian subgroup         CS      NOp   2
 Largest concise Abelian subgroup C1      NOp   1
                         Standard orientation:                         
 ---------------------------------------------------------------------
 Center     Atomic      Atomic             Coordinates (Angstroms)
 Number     Number       Type             X           Y           Z
 ---------------------------------------------------------------------
      1          6           0        1.907313   -3.017175    0.000000
      2          6           0        2.685629   -1.846679    0.000000
      3          6           0        2.080243   -0.605325    0.000000
      4          6           0        0.673458   -0.470416    0.000000
      5          6           0       -0.110005   -1.660320    0.000000
      6          6           0        0.532164   -2.919243    0.000000
      7          6           0       -1.541303   -1.568725    0.000000
      8          6           0       -2.168682   -0.365155    0.000000
      9          6           0       -1.424136    0.860572    0.000000
     10          6           0        0.000000    0.821402    0.000000
     11          6           0        0.694915    2.051932    0.000000
     12          1           0        1.777163    2.061414    0.000000
     13          1           0        2.707622    0.276555    0.000000
     14          6           0        0.023855    3.259080    0.000000
     15          6           0       -1.381438    3.291335    0.000000
     16          6           0       -2.088558    2.107921    0.000000
     17          1           0        2.387079   -3.989357    0.000000
     18          1           0        3.767637   -1.916957    0.000000
     19          1           0       -0.080180   -3.815163    0.000000
     20          1           0       -2.116109   -2.489029    0.000000
     21          1           0       -3.252311   -0.309323    0.000000
     22          1           0        0.585819    4.186369    0.000000
     23          1           0       -1.903732    4.241343    0.000000
     24          1           0       -3.173718    2.118929    0.000000
 ---------------------------------------------------------------------
 Rotational constants (GHZ):      1.6184840      0.5513957      0.4112786
 Leave Link  202 at Fri Dec  3 12:25:54 2021, MaxMem=  498073600 cpu:       0.2
 (Enter /apps/software//g09/l301.exe)
 Standard basis: 6-311++G(d,p) (5D, 7F)
 Ernie: Thresh=  0.10000D-02 Tol=  0.10000D-05 Strict=F.
 There are   284 symmetry adapted basis functions of A'  symmetry.
 There are    94 symmetry adapted basis functions of A"  symmetry.
 Integral buffers will be    131072 words long.
 Raffenetti 1 integral format.
 Two-electron integral symmetry is turned on.
   378 basis functions,   594 primitive gaussians,   392 cartesian basis functions
    47 alpha electrons       47 beta electrons
       nuclear repulsion energy       775.3965185822 Hartrees.
 IExCor=    0 DFT=F Ex=HF Corr=None ExCW=0 ScaHFX=  1.000000
 ScaDFX=  1.000000  1.000000  1.000000  1.000000 ScalE2=  1.000000  1.000000
 IRadAn=      0 IRanWt=     -1 IRanGd=            0 ICorTp=0
 NAtoms=   24 NActive=   24 NUniq=   24 SFac= 7.50D-01 NAtFMM=   80 NAOKFM=F Big=F
 Leave Link  301 at Fri Dec  3 12:25:54 2021, MaxMem=  498073600 cpu:       0.2
 (Enter /apps/software//g09/l302.exe)
 NPDir=0 NMtPBC=     1 NCelOv=     1 NCel=       1 NClECP=     1 NCelD=      1
         NCelK=      1 NCelE2=     1 NClLst=     1 CellRange=     0.0.
 One-electron integrals computed using PRISM.
 NBasis=   378 RedAO= T  NBF=   284    94
 NBsUse=   373 1.00D-06 NBFU=   279    94
 Leave Link  302 at Fri Dec  3 12:25:54 2021, MaxMem=  498073600 cpu:       2.3
 (Enter /apps/software//g09/l303.exe)
 DipDrv:  MaxL=1.
 Leave Link  303 at Fri Dec  3 12:25:55 2021, MaxMem=  498073600 cpu:       0.4
 (Enter /apps/software//g09/l401.exe)
 Harris functional with IExCor=  205 diagonalized for initial guess.
 ExpMin= 3.60D-02 ExpMax= 4.56D+03 ExpMxC= 6.82D+02 IAcc=3 IRadAn=         0 AccDes= 0.00D+00
 HarFok:  IExCor=  205 AccDes= 0.00D+00 IRadAn=         0 IDoV= 1
 ScaDFX=  1.000000  1.000000  1.000000  1.000000
 FoFCou: FMM=F IPFlag=           0 FMFlag=      100000 FMFlg1=           0
         NFxFlg=           0 DoJE=T BraDBF=F KetDBF=T FulRan=T
         Omega=  0.000000  0.000000  1.000000  0.000000  0.000000 ICntrl=     500 IOpCl=  0
         NMat0=    1 NMatS0=    1 NMatT0=    0 NMatD0=    1 NMtDS0=    0 NMtDT0=    0
         I1Cent=           4 NGrid=           0.
 Petite list used in FoFCou.
 Harris En= -536.916101317715    
 Initial guess orbital symmetries:
       Occupied  (A') (A') (A') (A') (A') (A') (A') (A') (A') (A')
                 (A') (A') (A') (A') (A') (A') (A') (A') (A') (A')
                 (A') (A') (A') (A') (A') (A') (A') (A') (A') (A')
                 (A') (A') (A') (A') (A') (A') (A") (A') (A') (A")
                 (A') (A') (A") (A") (A") (A") (A")
       Virtual   (A") (A") (A") (A") (A") (A') (A") (A') (A') (A')
                 (A') (A') (A') (A') (A") (A') (A") (A') (A') (A")
                 (A') (A") (A') (A') (A') (A') (A") (A") (A') (A')
                 (A') (A') (A') (A') (A') (A") (A') (A') (A') (A')
                 (A") (A') (A") (A') (A') (A') (A') (A") (A') (A')
                 (A') (A") (A') (A') (A') (A") (A') (A') (A") (A')
                 (A') (A") (A') (A') (A') (A') (A") (A') (A') (A')
                 (A') (A') (A') (A') (A') (A') (A') (A') (A') (A')
                 (A') (A') (A') (A') (A') (A') (A') (A') (A') (A')
                 (A') (A') (A') (A") (A') (A") (A") (A') (A') (A')
                 (A') (A') (A") (A") (A") (A') (A') (A') (A") (A")
                 (A') (A') (A') (A") (A') (A") (A') (A") (A") (A')
                 (A") (A') (A') (A') (A') (A') (A') (A') (A") (A')
                 (A') (A') (A') (A') (A') (A') (A") (A') (A') (A')
                 (A') (A') (A") (A') (A') (A') (A') (A") (A') (A")
                 (A') (A') (A') (A") (A") (A') (A") (A") (A") (A")
                 (A') (A') (A") (A") (A') (A') (A') (A') (A') (A')
                 (A') (A') (A') (A') (A") (A') (A') (A') (A") (A')
                 (A') (A") (A') (A') (A") (A") (A") (A') (A') (A")
                 (A') (A') (A') (A') (A') (A') (A") (A") (A") (A")
                 (A") (A') (A') (A') (A") (A") (A') (A') (A") (A')
                 (A') (A") (A') (A") (A") (A') (A') (A') (A') (A')
                 (A') (A') (A') (A") (A") (A') (A') (A') (A") (A")
                 (A') (A') (A") (A') (A") (A') (A') (A") (A") (A')
                 (A') (A') (A') (A') (A') (A') (A") (A') (A") (A")
                 (A') (A') (A') (A") (A') (A') (A') (A") (A') (A')
                 (A") (A') (A") (A') (A') (A') (A') (A') (A") (A')
                 (A") (A') (A") (A') (A') (A") (A') (A") (A') (A")
                 (A") (A') (A') (A') (A') (A') (A') (A') (A') (A')
                 (A') (A') (A') (A') (A') (A') (A') (A') (A') (A')
                 (A') (A') (A') (A') (A') (A') (A') (A') (A') (A')
                 (A') (A') (A') (A') (A') (A') (A') (A') (A') (A')
                 (A') (A') (A') (A') (A') (A')
 The electronic state of the initial guess is 1-A'.
 Leave Link  401 at Fri Dec  3 12:25:56 2021, MaxMem=  498073600 cpu:      10.8
 (Enter /apps/software//g09/l502.exe)
 Closed shell SCF:
 Requested convergence on RMS density matrix=1.00D-08 within 128 cycles.
 Requested convergence on MAX density matrix=1.00D-06.
 Requested convergence on             energy=1.00D-06.
 No special actions if energy rises.
 Using DIIS extrapolation, IDIIS=  1040.
 Integral symmetry usage will be decided dynamically.
 IEnd=      484536 IEndB=      484536 NGot=   498073600 MDV=   497759761
 LenX=   497759761 LenY=   497605656
 Fock matrices will be formed incrementally for  20 cycles.

 Cycle   1  Pass 0  IDiag  1:
 FoFCou: FMM=F IPFlag=           0 FMFlag=      100000 FMFlg1=           0
         NFxFlg=           0 DoJE=F BraDBF=F KetDBF=F FulRan=T
         Omega=  0.000000  0.000000  1.000000  0.000000  0.000000 ICntrl=       0 IOpCl=  0
         NMat0=    1 NMatS0=    1 NMatT0=    0 NMatD0=    1 NMtDS0=    0 NMtDT0=    0
         I1Cent=           0 NGrid=           0.
 Petite list used in FoFCou.
 E= -535.526091419087    
 DIIS: error= 7.10D-02 at cycle   1 NSaved=   1.
 NSaved= 1 IEnMin= 1 EnMin= -535.526091419087     IErMin= 1 ErrMin= 7.10D-02
 ErrMax= 7.10D-02 EMaxC= 1.00D-01 BMatC= 1.11D+00 BMatP= 1.11D+00
 IDIUse=3 WtCom= 2.90D-01 WtEn= 7.10D-01
 Coeff-Com:  0.100D+01
 Coeff-En:   0.100D+01
 Coeff:      0.100D+01
 Gap=     0.299 Goal=   None    Shift=    0.000
 GapD=    0.299 DampG=1.000 DampE=0.500 DampFc=0.5000 IDamp=-1.
 Damping current iteration by 5.00D-01
 RMSDP=2.83D-02 MaxDP=1.09D+00              OVMax= 1.59D-01

 Cycle   2  Pass 0  IDiag  1:
 RMSU=  8.59D-03    CP:  1.09D+00
 E= -535.835589065235     Delta-E=       -0.309497646148 Rises=F Damp=T
 DIIS: error= 3.16D-02 at cycle   2 NSaved=   2.
 NSaved= 2 IEnMin= 2 EnMin= -535.835589065235     IErMin= 2 ErrMin= 3.16D-02
 ErrMax= 3.16D-02 EMaxC= 1.00D-01 BMatC= 2.55D-01 BMatP= 1.11D+00
 IDIUse=3 WtCom= 6.84D-01 WtEn= 3.16D-01
 Coeff-Com: -0.786D+00 0.179D+01
 Coeff-En:   0.000D+00 0.100D+01
 Coeff:     -0.538D+00 0.154D+01
 Gap=     0.329 Goal=   None    Shift=    0.000
 RMSDP=1.31D-02 MaxDP=9.06D-01 DE=-3.09D-01 OVMax= 4.23D-02

 Cycle   3  Pass 0  IDiag  1:
 RMSU=  3.36D-03    CP:  9.42D-01  1.20D+00
 E= -536.117689330068     Delta-E=       -0.282100264833 Rises=F Damp=F
 DIIS: error= 2.62D-03 at cycle   3 NSaved=   3.
 NSaved= 3 IEnMin= 3 EnMin= -536.117689330068     IErMin= 3 ErrMin= 2.62D-03
 ErrMax= 2.62D-03 EMaxC= 1.00D-01 BMatC= 2.00D-03 BMatP= 2.55D-01
 IDIUse=3 WtCom= 9.74D-01 WtEn= 2.62D-02
 Coeff-Com: -0.835D-01 0.131D+00 0.953D+00
 Coeff-En:   0.000D+00 0.000D+00 0.100D+01
 Coeff:     -0.813D-01 0.127D+00 0.954D+00
 Gap=     0.323 Goal=   None    Shift=    0.000
 RMSDP=3.44D-03 MaxDP=1.73D-01 DE=-2.82D-01 OVMax= 1.01D-02

 Cycle   4  Pass 0  IDiag  1:
 RMSU=  1.70D-03    CP:  9.13D-01  1.19D+00  8.35D-01
 E= -536.119703140640     Delta-E=       -0.002013810572 Rises=F Damp=F
 DIIS: error= 1.21D-03 at cycle   4 NSaved=   4.
 NSaved= 4 IEnMin= 4 EnMin= -536.119703140640     IErMin= 4 ErrMin= 1.21D-03
 ErrMax= 1.21D-03 EMaxC= 1.00D-01 BMatC= 1.51D-04 BMatP= 2.00D-03
 IDIUse=3 WtCom= 9.88D-01 WtEn= 1.21D-02
 Coeff-Com: -0.287D-03-0.851D-02 0.146D+00 0.863D+00
 Coeff-En:   0.000D+00 0.000D+00 0.000D+00 0.100D+01
 Coeff:     -0.284D-03-0.841D-02 0.144D+00 0.864D+00
 Gap=     0.322 Goal=   None    Shift=    0.000
 RMSDP=4.02D-04 MaxDP=2.36D-02 DE=-2.01D-03 OVMax= 4.92D-03

 Cycle   5  Pass 0  IDiag  1:
 RMSU=  2.27D-04    CP:  9.12D-01  1.19D+00  8.73D-01  1.04D+00
 E= -536.119892676950     Delta-E=       -0.000189536310 Rises=F Damp=F
 DIIS: error= 5.81D-04 at cycle   5 NSaved=   5.
 NSaved= 5 IEnMin= 5 EnMin= -536.119892676950     IErMin= 5 ErrMin= 5.81D-04
 ErrMax= 5.81D-04 EMaxC= 1.00D-01 BMatC= 2.56D-05 BMatP= 1.51D-04
 IDIUse=3 WtCom= 9.94D-01 WtEn= 5.81D-03
 Coeff-Com:  0.768D-02-0.138D-01-0.657D-01 0.186D+00 0.885D+00
 Coeff-En:   0.000D+00 0.000D+00 0.000D+00 0.000D+00 0.100D+01
 Coeff:      0.763D-02-0.137D-01-0.653D-01 0.185D+00 0.886D+00
 Gap=     0.323 Goal=   None    Shift=    0.000
 RMSDP=1.83D-04 MaxDP=7.51D-03 DE=-1.90D-04 OVMax= 2.57D-03

 Cycle   6  Pass 0  IDiag  1:
 RMSU=  6.82D-05    CP:  9.11D-01  1.19D+00  8.73D-01  1.10D+00  1.02D+00
 E= -536.119934963969     Delta-E=       -0.000042287019 Rises=F Damp=F
 DIIS: error= 2.47D-04 at cycle   6 NSaved=   6.
 NSaved= 6 IEnMin= 6 EnMin= -536.119934963969     IErMin= 6 ErrMin= 2.47D-04
 ErrMax= 2.47D-04 EMaxC= 1.00D-01 BMatC= 3.31D-06 BMatP= 2.56D-05
 IDIUse=3 WtCom= 9.98D-01 WtEn= 2.47D-03
 Coeff-Com:  0.255D-02-0.376D-02-0.338D-01-0.434D-01 0.231D+00 0.847D+00
 Coeff-En:   0.000D+00 0.000D+00 0.000D+00 0.000D+00 0.000D+00 0.100D+01
 Coeff:      0.254D-02-0.375D-02-0.338D-01-0.433D-01 0.231D+00 0.848D+00
 Gap=     0.323 Goal=   None    Shift=    0.000
 RMSDP=1.09D-04 MaxDP=4.35D-03 DE=-4.23D-05 OVMax= 1.05D-03

 Cycle   7  Pass 0  IDiag  1:
 RMSU=  2.86D-05    CP:  9.11D-01  1.18D+00  8.70D-01  1.14D+00  1.12D+00
                    CP:  1.18D+00
 E= -536.119941701768     Delta-E=       -0.000006737799 Rises=F Damp=F
 DIIS: error= 9.55D-05 at cycle   7 NSaved=   7.
 NSaved= 7 IEnMin= 7 EnMin= -536.119941701768     IErMin= 7 ErrMin= 9.55D-05
 ErrMax= 9.55D-05 EMaxC= 1.00D-01 BMatC= 3.75D-07 BMatP= 3.31D-06
 IDIUse=1 WtCom= 1.00D+00 WtEn= 0.00D+00
 Coeff-Com: -0.324D-03 0.766D-03-0.122D-03-0.291D-01-0.447D-01 0.170D+00
 Coeff-Com:  0.904D+00
 Coeff:     -0.324D-03 0.766D-03-0.122D-03-0.291D-01-0.447D-01 0.170D+00
 Coeff:      0.904D+00
 Gap=     0.323 Goal=   None    Shift=    0.000
 RMSDP=2.85D-05 MaxDP=2.60D-03 DE=-6.74D-06 OVMax= 5.09D-04

 Cycle   8  Pass 0  IDiag  1:
 RMSU=  1.08D-05    CP:  9.12D-01  1.18D+00  8.69D-01  1.14D+00  1.10D+00
                    CP:  1.27D+00  1.18D+00
 E= -536.119942921153     Delta-E=       -0.000001219385 Rises=F Damp=F
 DIIS: error= 3.39D-05 at cycle   8 NSaved=   8.
 NSaved= 8 IEnMin= 8 EnMin= -536.119942921153     IErMin= 8 ErrMin= 3.39D-05
 ErrMax= 3.39D-05 EMaxC= 1.00D-01 BMatC= 5.54D-08 BMatP= 3.75D-07
 IDIUse=1 WtCom= 1.00D+00 WtEn= 0.00D+00
 Coeff-Com: -0.421D-03 0.598D-03 0.591D-02 0.145D-01-0.319D-01-0.203D+00
 Coeff-Com: -0.159D+00 0.137D+01
 Coeff:     -0.421D-03 0.598D-03 0.591D-02 0.145D-01-0.319D-01-0.203D+00
 Coeff:     -0.159D+00 0.137D+01
 Gap=     0.323 Goal=   None    Shift=    0.000
 RMSDP=2.58D-05 MaxDP=2.59D-03 DE=-1.22D-06 OVMax= 3.34D-04

 Cycle   9  Pass 0  IDiag  1:
 RMSU=  2.00D-06    CP:  9.12D-01  1.18D+00  8.68D-01  1.15D+00  1.09D+00
                    CP:  1.33D+00  1.46D+00  1.39D+00
 E= -536.119943219311     Delta-E=       -0.000000298157 Rises=F Damp=F
 DIIS: error= 7.30D-06 at cycle   9 NSaved=   9.
 NSaved= 9 IEnMin= 9 EnMin= -536.119943219311     IErMin= 9 ErrMin= 7.30D-06
 ErrMax= 7.30D-06 EMaxC= 1.00D-01 BMatC= 2.34D-09 BMatP= 5.54D-08
 IDIUse=1 WtCom= 1.00D+00 WtEn= 0.00D+00
 Coeff-Com: -0.522D-04 0.617D-04 0.785D-03 0.369D-02-0.147D-02-0.361D-01
 Coeff-Com: -0.774D-01 0.167D+00 0.943D+00
 Coeff:     -0.522D-04 0.617D-04 0.785D-03 0.369D-02-0.147D-02-0.361D-01
 Coeff:     -0.774D-01 0.167D+00 0.943D+00
 Gap=     0.323 Goal=   None    Shift=    0.000
 RMSDP=3.88D-06 MaxDP=3.79D-04 DE=-2.98D-07 OVMax= 5.59D-05

 Initial convergence to 1.0D-05 achieved.  Increase integral accuracy.
 Cycle  10  Pass 1  IDiag  1:
 E= -536.119943226695     Delta-E=       -0.000000007385 Rises=F Damp=F
 DIIS: error= 1.11D-06 at cycle   1 NSaved=   1.
 NSaved= 1 IEnMin= 1 EnMin= -536.119943226695     IErMin= 1 ErrMin= 1.11D-06
 ErrMax= 1.11D-06 EMaxC= 1.00D-01 BMatC= 2.94D-10 BMatP= 2.94D-10
 IDIUse=1 WtCom= 1.00D+00 WtEn= 0.00D+00
 Coeff-Com:  0.100D+01
 Coeff:      0.100D+01
 Gap=     0.323 Goal=   None    Shift=    0.000
 RMSDP=3.88D-06 MaxDP=3.79D-04 DE=-7.38D-09 OVMax= 6.75D-06

 Cycle  11  Pass 1  IDiag  1:
 RMSU=  3.73D-07    CP:  1.00D+00
 E= -536.119943227074     Delta-E=       -0.000000000379 Rises=F Damp=F
 DIIS: error= 1.42D-06 at cycle   2 NSaved=   2.
 NSaved= 2 IEnMin= 2 EnMin= -536.119943227074     IErMin= 1 ErrMin= 1.11D-06
 ErrMax= 1.42D-06 EMaxC= 1.00D-01 BMatC= 9.44D-11 BMatP= 2.94D-10
 IDIUse=1 WtCom= 1.00D+00 WtEn= 0.00D+00
 Coeff-Com:  0.315D+00 0.685D+00
 Coeff:      0.315D+00 0.685D+00
 Gap=     0.323 Goal=   None    Shift=    0.000
 RMSDP=3.03D-07 MaxDP=2.13D-05 DE=-3.79D-10 OVMax= 4.62D-06

 Cycle  12  Pass 1  IDiag  1:
 RMSU=  1.96D-07    CP:  1.00D+00  1.21D+00
 E= -536.119943227211     Delta-E=       -0.000000000136 Rises=F Damp=F
 DIIS: error= 5.41D-07 at cycle   3 NSaved=   3.
 NSaved= 3 IEnMin= 3 EnMin= -536.119943227211     IErMin= 3 ErrMin= 5.41D-07
 ErrMax= 5.41D-07 EMaxC= 1.00D-01 BMatC= 1.39D-11 BMatP= 9.44D-11
 IDIUse=1 WtCom= 1.00D+00 WtEn= 0.00D+00
 Coeff-Com: -0.270D+00-0.156D+00 0.143D+01
 Coeff:     -0.270D+00-0.156D+00 0.143D+01
 Gap=     0.323 Goal=   None    Shift=    0.000
 RMSDP=2.62D-07 MaxDP=1.46D-05 DE=-1.36D-10 OVMax= 4.48D-06

 Cycle  13  Pass 1  IDiag  1:
 RMSU=  6.79D-08    CP:  1.00D+00  1.53D+00  1.51D+00
 E= -536.119943227304     Delta-E=       -0.000000000093 Rises=F Damp=F
 DIIS: error= 2.26D-07 at cycle   4 NSaved=   4.
 NSaved= 4 IEnMin= 4 EnMin= -536.119943227304     IErMin= 4 ErrMin= 2.26D-07
 ErrMax= 2.26D-07 EMaxC= 1.00D-01 BMatC= 3.23D-12 BMatP= 1.39D-11
 IDIUse=1 WtCom= 1.00D+00 WtEn= 0.00D+00
 Coeff-Com: -0.158D+00-0.159D+00 0.502D+00 0.815D+00
 Coeff:     -0.158D+00-0.159D+00 0.502D+00 0.815D+00
 Gap=     0.323 Goal=   None    Shift=    0.000
 RMSDP=6.48D-08 MaxDP=4.05D-06 DE=-9.32D-11 OVMax= 1.76D-06

 Cycle  14  Pass 1  IDiag  1:
 RMSU=  2.53D-08    CP:  1.00D+00  1.60D+00  1.62D+00  1.21D+00
 E= -536.119943227314     Delta-E=       -0.000000000010 Rises=F Damp=F
 DIIS: error= 9.42D-08 at cycle   5 NSaved=   5.
 NSaved= 5 IEnMin= 5 EnMin= -536.119943227314     IErMin= 5 ErrMin= 9.42D-08
 ErrMax= 9.42D-08 EMaxC= 1.00D-01 BMatC= 3.76D-13 BMatP= 3.23D-12
 IDIUse=1 WtCom= 1.00D+00 WtEn= 0.00D+00
 Coeff-Com:  0.823D-01 0.770D-01-0.392D+00-0.284D+00 0.152D+01
 Coeff:      0.823D-01 0.770D-01-0.392D+00-0.284D+00 0.152D+01
 Gap=     0.323 Goal=   None    Shift=    0.000
 RMSDP=4.65D-08 MaxDP=2.44D-06 DE=-9.78D-12 OVMax= 9.27D-07

 Cycle  15  Pass 1  IDiag  1:
 RMSU=  7.50D-09    CP:  1.00D+00  1.59D+00  1.61D+00  1.50D+00  1.55D+00
 E= -536.119943227305     Delta-E=        0.000000000009 Rises=F Damp=F
 DIIS: error= 2.09D-08 at cycle   6 NSaved=   6.
 NSaved= 6 IEnMin= 5 EnMin= -536.119943227314     IErMin= 6 ErrMin= 2.09D-08
 ErrMax= 2.09D-08 EMaxC= 1.00D-01 BMatC= 3.58D-14 BMatP= 3.76D-13
 IDIUse=1 WtCom= 1.00D+00 WtEn= 0.00D+00
 Coeff-Com:  0.265D-01 0.300D-01-0.101D+00-0.140D+00 0.301D+00 0.883D+00
 Coeff:      0.265D-01 0.300D-01-0.101D+00-0.140D+00 0.301D+00 0.883D+00
 Gap=     0.323 Goal=   None    Shift=    0.000
 RMSDP=8.23D-09 MaxDP=5.22D-07 DE= 9.09D-12 OVMax= 1.41D-07

 SCF Done:  E(RHF) =  -536.119943227     A.U. after   15 cycles
             Convg  =    0.8228D-08             -V/T =  2.0012
 KE= 5.354733181931D+02 PE=-2.798377537309D+03 EE= 9.513877573068D+02
 Leave Link  502 at Fri Dec  3 12:31:11 2021, MaxMem=  498073600 cpu:    1885.1
 (Enter /apps/software//g09/l801.exe)
 ExpMin= 3.60D-02 ExpMax= 4.56D+03 ExpMxC= 6.82D+02 IAcc=3 IRadAn=         5 AccDes= 0.00D+00
 HarFok:  IExCor=  205 AccDes= 0.00D+00 IRadAn=         5 IDoV=-2
 ScaDFX=  1.000000  1.000000  1.000000  1.000000
 Largest valence mixing into a core orbital is  1.47D-04
 Largest core mixing into a valence orbital is  4.34D-05
 Range of M.O.s used for correlation:    15   373
 NBasis=   378 NAE=    47 NBE=    47 NFC=    14 NFV=     0
 NROrb=    359 NOA=    33 NOB=    33 NVA=   326 NVB=   326

 **** Warning!!: The largest alpha MO coefficient is  0.20224361D+03

 Leave Link  801 at Fri Dec  3 12:31:11 2021, MaxMem=  498073600 cpu:       2.4
 (Enter /apps/software//g09/l906.exe)
 Frozen-core derivative calculation, NFC=  14 NFV=   0.
 FulOut=F Deriv=T AODrv=F NAtomX=    24
   MMem=          17  MDisk=          33 MDiskD=          33
  W3Min=     6872152 MinDsk=     8596972 NBas6D=         392
 NBas2D=       77604    NTT=       77028    LW2=     2040000
    MDV=   496420286 MDiskM=       17517 NBas2p=       69675
 Disk-based method using ON**2 memory for 33 occupieds at a time.
 Estimated scratch disk usage=  3500539657 words.
 IMap=   1   2   3   4   5   6   7   8   9  10  11  12  13  14  15  16  17  18  19  20
 IMap=  21  22  23  24  25  26  27  28  29  30  31  32  33  34  35  36  37  38  39  40
 IMap=  41  42  43  44  45  46  47
 Actual    scratch disk usage=  3133920009 words.
 JobTyp=1 Pass  1:  I=  15 to  47 NPSUse=  6 ParTrn=T ParDer=T DoDerP=T.
 Spin components of T(2) and E(2):
     alpha-alpha T2 =       0.1033774566D+00 E2=     -0.2595095238D+00
     alpha-beta  T2 =       0.5131852760D+00 E2=     -0.1394385245D+01
     beta-beta   T2 =       0.1033774566D+00 E2=     -0.2595095238D+00
 The integrals were generated   1 times.
 ANorm=    0.1311464902D+01
 E2 =    -0.1913404293D+01 EUMP2 =    -0.53803334751993D+03
 Leave Link  906 at Fri Dec  3 12:40:13 2021, MaxMem=  498073600 cpu:    3095.8
 (Enter /apps/software//g09/l1002.exe)
 Minotr:  Closed shell wavefunction.
          Computing MP2/KS-MP2 derivatives.
          Using Z-Vector for PSCF gradient.
          Skipping F1 and S1 gradient terms here.
          Frozen-core window.
          Direct CPHF calculation.
          Differentiating once with respect to electric field.
                with respect to dipole field.
          Electric field/nuclear overlap derivatives assumed to be zero.
          Using symmetry in CPHF.
          Requested convergence is 1.0D-10 RMS, and 1.0D-09 maximum.
          NewPWx=F KeepS1=T KeepF1=T KeepIn=T MapXYZ=F SortEE=F KeepMc=T.
          MDV=     498073404 using IRadAn=       0.
          Solving linear equations separately, MaxMat=       0.
          There are     1 degrees of freedom in the 1st order CPHF.  IDoFFX=0.
 Petite list used in FoFDir.
 MinBra= 0 MaxBra= 2 Meth= 1.
 IRaf=       0 NMat=   1 IRICut=       1 DoRegI=T DoRafI=F ISym2E= 1 JSym2E=1.
 LinEq1:  Iter=  0 NonCon=     1 RMS=2.54D-03 Max=7.88D-02
 AX will form     1 AO Fock derivatives at one time.
 LinEq1:  Iter=  1 NonCon=     1 RMS=5.52D-04 Max=8.91D-03
 LinEq1:  Iter=  2 NonCon=     1 RMS=1.92D-04 Max=8.28D-03
 LinEq1:  Iter=  3 NonCon=     1 RMS=8.16D-05 Max=2.77D-03
 LinEq1:  Iter=  4 NonCon=     1 RMS=3.43D-05 Max=1.38D-03
 LinEq1:  Iter=  5 NonCon=     1 RMS=1.06D-05 Max=2.27D-04
 LinEq1:  Iter=  6 NonCon=     1 RMS=3.49D-06 Max=1.10D-04
 LinEq1:  Iter=  7 NonCon=     1 RMS=1.24D-06 Max=6.96D-05
 LinEq1:  Iter=  8 NonCon=     1 RMS=5.09D-07 Max=3.71D-05
 LinEq1:  Iter=  9 NonCon=     1 RMS=2.64D-07 Max=1.67D-05
 LinEq1:  Iter= 10 NonCon=     1 RMS=6.71D-08 Max=1.44D-06
 LinEq1:  Iter= 11 NonCon=     1 RMS=2.07D-08 Max=5.51D-07
 LinEq1:  Iter= 12 NonCon=     1 RMS=5.91D-09 Max=1.09D-07
 LinEq1:  Iter= 13 NonCon=     1 RMS=1.36D-09 Max=3.57D-08
 LinEq1:  Iter= 14 NonCon=     1 RMS=4.12D-10 Max=6.89D-09
 LinEq1:  Iter= 15 NonCon=     1 RMS=1.72D-10 Max=6.54D-09
 LinEq1:  Iter= 16 NonCon=     0 RMS=3.65D-11 Max=9.03D-10
 Linear equations converged to 1.000D-10 1.000D-09 after    16 iterations.
 End of Minotr Frequency-dependent properties file   721 does not exist.
 End of Minotr Frequency-dependent properties file   722 does not exist.
 Leave Link 1002 at Fri Dec  3 12:47:01 2021, MaxMem=  498073600 cpu:    2444.9
 (Enter /apps/software//g09/l601.exe)
 Copying SCF densities to generalized density rwf, IOpCl= 0 IROHF=0.

 **********************************************************************

            Population analysis using the MP2 density.

 **********************************************************************

 Orbital symmetries:
       Occupied  (A') (A') (A') (A') (A') (A') (A') (A') (A') (A')
                 (A') (A') (A') (A') (A') (A') (A') (A') (A') (A')
                 (A') (A') (A') (A') (A') (A') (A') (A') (A') (A')
                 (A') (A') (A') (A') (A') (A') (A") (A') (A') (A")
                 (A') (A') (A") (A") (A") (A") (A")
       Virtual   (A') (A') (A') (A') (A') (A') (A') (A") (A") (A')
                 (A") (A') (A') (A") (A') (A") (A") (A") (A") (A')
                 (A') (A') (A") (A') (A') (A') (A') (A') (A") (A')
                 (A') (A') (A') (A') (A') (A") (A") (A") (A') (A")
                 (A") (A') (A') (A') (A") (A') (A') (A') (A') (A")
                 (A") (A') (A') (A") (A') (A') (A') (A') (A') (A")
                 (A') (A') (A') (A') (A') (A') (A') (A') (A') (A')
                 (A') (A') (A') (A') (A") (A') (A') (A') (A') (A')
                 (A') (A') (A') (A') (A') (A') (A') (A') (A') (A')
                 (A') (A") (A') (A') (A') (A') (A") (A") (A') (A')
                 (A') (A") (A') (A") (A') (A") (A') (A") (A") (A')
                 (A') (A') (A") (A') (A") (A') (A') (A") (A") (A")
                 (A') (A') (A') (A') (A') (A") (A') (A') (A') (A')
                 (A') (A') (A') (A') (A') (A') (A') (A') (A') (A')
                 (A') (A") (A') (A') (A') (A') (A') (A') (A') (A')
                 (A") (A") (A') (A") (A') (A") (A') (A") (A") (A")
                 (A') (A') (A") (A") (A') (A") (A') (A") (A') (A')
                 (A') (A') (A') (A") (A') (A') (A') (A") (A') (A')
                 (A") (A') (A") (A") (A") (A') (A') (A") (A') (A')
                 (A') (A') (A') (A') (A') (A') (A") (A") (A") (A")
                 (A") (A') (A') (A') (A') (A") (A") (A') (A') (A")
                 (A') (A') (A") (A') (A") (A') (A') (A') (A") (A')
                 (A') (A') (A") (A') (A") (A') (A') (A") (A') (A")
                 (A') (A") (A') (A") (A') (A') (A") (A') (A") (A')
                 (A') (A') (A') (A') (A') (A') (A') (A') (A') (A')
                 (A') (A") (A') (A') (A') (A') (A') (A") (A') (A')
                 (A') (A') (A") (A') (A") (A') (A') (A") (A') (A")
                 (A") (A") (A') (A") (A') (A") (A") (A') (A") (A")
                 (A") (A') (A') (A') (A') (A') (A') (A') (A') (A')
                 (A') (A') (A') (A') (A') (A') (A') (A') (A') (A')
                 (A') (A') (A') (A') (A') (A') (A') (A') (A') (A')
                 (A') (A') (A') (A') (A') (A') (A') (A') (A') (A')
                 (A') (A') (A') (A') (A') (A')
 The electronic state is 1-A'.
 Alpha  occ. eigenvalues --  -11.25368 -11.25284 -11.24953 -11.24952 -11.24166
 Alpha  occ. eigenvalues --  -11.24128 -11.24128 -11.24096 -11.24096 -11.24017
 Alpha  occ. eigenvalues --  -11.23996 -11.23995 -11.23902 -11.23902  -1.19001
 Alpha  occ. eigenvalues --   -1.14782  -1.09721  -1.05625  -1.03126  -0.99135
 Alpha  occ. eigenvalues --   -0.98329  -0.86420  -0.85724  -0.83614  -0.80113
 Alpha  occ. eigenvalues --   -0.73839  -0.72020  -0.68436  -0.66337  -0.66051
 Alpha  occ. eigenvalues --   -0.61327  -0.60292  -0.59698  -0.59551  -0.57926
 Alpha  occ. eigenvalues --   -0.55729  -0.54775  -0.52134  -0.51696  -0.49353
 Alpha  occ. eigenvalues --   -0.48487  -0.47284  -0.43113  -0.38366  -0.35180
 Alpha  occ. eigenvalues --   -0.29728  -0.28539
 Alpha virt. eigenvalues --    0.03768   0.04343   0.04351   0.05534   0.05562
 Alpha virt. eigenvalues --    0.07222   0.07426   0.07512   0.07565   0.09478
 Alpha virt. eigenvalues --    0.10058   0.10351   0.12083   0.12154   0.12578
 Alpha virt. eigenvalues --    0.12808   0.13534   0.14031   0.15417   0.15435
 Alpha virt. eigenvalues --    0.15923   0.16454   0.16738   0.17529   0.17604
 Alpha virt. eigenvalues --    0.17786   0.18173   0.18512   0.19000   0.19422
 Alpha virt. eigenvalues --    0.20006   0.20070   0.20519   0.20766   0.21112
 Alpha virt. eigenvalues --    0.21402   0.22144   0.22620   0.23177   0.23427
 Alpha virt. eigenvalues --    0.23867   0.24108   0.25088   0.25361   0.25753
 Alpha virt. eigenvalues --    0.25850   0.26448   0.27093   0.27814   0.28017
 Alpha virt. eigenvalues --    0.29303   0.30213   0.31276   0.32255   0.32353
 Alpha virt. eigenvalues --    0.32434   0.33144   0.33513   0.34660   0.34855
 Alpha virt. eigenvalues --    0.35406   0.35570   0.37121   0.37548   0.38258
 Alpha virt. eigenvalues --    0.38751   0.39610   0.40558   0.40967   0.41390
 Alpha virt. eigenvalues --    0.41472   0.42250   0.43659   0.43674   0.43917
 Alpha virt. eigenvalues --    0.44799   0.45302   0.46210   0.46780   0.47249
 Alpha virt. eigenvalues --    0.49333   0.50491   0.51178   0.52144   0.53665
 Alpha virt. eigenvalues --    0.55513   0.56014   0.62797   0.63449   0.66665
 Alpha virt. eigenvalues --    0.68444   0.70750   0.70991   0.72464   0.72590
 Alpha virt. eigenvalues --    0.72842   0.72949   0.73366   0.74829   0.75334
 Alpha virt. eigenvalues --    0.75556   0.75932   0.76962   0.78017   0.79386
 Alpha virt. eigenvalues --    0.79486   0.79488   0.79923   0.80144   0.81163
 Alpha virt. eigenvalues --    0.83010   0.83982   0.84375   0.84767   0.84849
 Alpha virt. eigenvalues --    0.86027   0.86979   0.87757   0.90144   0.92129
 Alpha virt. eigenvalues --    0.93063   0.94311   0.95954   0.96429   0.96978
 Alpha virt. eigenvalues --    0.98060   0.98426   0.98606   0.99047   1.02326
 Alpha virt. eigenvalues --    1.03020   1.03646   1.03984   1.04590   1.05941
 Alpha virt. eigenvalues --    1.06577   1.08312   1.09851   1.10867   1.13113
 Alpha virt. eigenvalues --    1.13206   1.15083   1.15673   1.16300   1.16532
 Alpha virt. eigenvalues --    1.16997   1.17370   1.17994   1.19399   1.19450
 Alpha virt. eigenvalues --    1.20064   1.23985   1.23987   1.26160   1.28347
 Alpha virt. eigenvalues --    1.28453   1.29269   1.29504   1.32779   1.33076
 Alpha virt. eigenvalues --    1.33422   1.34922   1.36396   1.36532   1.38385
 Alpha virt. eigenvalues --    1.40456   1.40458   1.41693   1.50644   1.55744
 Alpha virt. eigenvalues --    1.56321   1.59820   1.63959   1.72064   1.72905
 Alpha virt. eigenvalues --    1.74290   1.76072   1.76368   1.76488   1.76718
 Alpha virt. eigenvalues --    1.78559   1.79558   1.82542   1.83168   1.84183
 Alpha virt. eigenvalues --    1.84243   1.84812   1.88098   1.88206   1.88891
 Alpha virt. eigenvalues --    1.92927   1.93499   1.94928   1.97852   1.98930
 Alpha virt. eigenvalues --    2.00277   2.00670   2.01669   2.02056   2.03369
 Alpha virt. eigenvalues --    2.04441   2.07257   2.08955   2.11554   2.14927
 Alpha virt. eigenvalues --    2.16865   2.16967   2.18425   2.18664   2.19813
 Alpha virt. eigenvalues --    2.19943   2.21730   2.22695   2.22964   2.26434
 Alpha virt. eigenvalues --    2.26619   2.27177   2.27806   2.28131   2.30183
 Alpha virt. eigenvalues --    2.31888   2.33432   2.35618   2.36389   2.38679
 Alpha virt. eigenvalues --    2.42264   2.44736   2.46596   2.47432   2.48411
 Alpha virt. eigenvalues --    2.53963   2.56924   2.58135   2.61772   2.62353
 Alpha virt. eigenvalues --    2.68630   2.74156   2.74238   2.76957   2.79215
 Alpha virt. eigenvalues --    2.82550   2.84698   2.85056   2.86128   2.87994
 Alpha virt. eigenvalues --    2.89379   2.94166   3.00696   3.01136   3.01374
 Alpha virt. eigenvalues --    3.02555   3.03978   3.04287   3.04633   3.05006
 Alpha virt. eigenvalues --    3.05159   3.06922   3.07504   3.07525   3.07798
 Alpha virt. eigenvalues --    3.08968   3.10600   3.10658   3.12803   3.17476
 Alpha virt. eigenvalues --    3.19073   3.19721   3.20775   3.22100   3.23211
 Alpha virt. eigenvalues --    3.24494   3.28439   3.30405   3.30789   3.31698
 Alpha virt. eigenvalues --    3.31906   3.36169   3.40937   3.45374   3.48727
 Alpha virt. eigenvalues --    3.51746   3.62919   3.64676   3.69571   3.75605
 Alpha virt. eigenvalues --    3.75963   3.77703   3.80645   3.81326   3.85890
 Alpha virt. eigenvalues --    3.88245   3.92382   3.96160   3.98257   3.98702
 Alpha virt. eigenvalues --    4.03559   4.05910   4.08071   4.16920   4.24990
 Alpha virt. eigenvalues --    4.45041   4.46480   4.48428   4.48559   4.50705
 Alpha virt. eigenvalues --    4.58069   4.67436   4.71552   4.94050   5.25417
 Alpha virt. eigenvalues --    5.26644   5.29777  24.65091  24.89384  25.00851
 Alpha virt. eigenvalues --   25.09603  25.11649  25.11939  25.13678  25.17727
 Alpha virt. eigenvalues --   25.19625  25.27333  25.28097  25.35337  25.35875
 Alpha virt. eigenvalues --   25.37861
          Condensed to atoms (all electrons):
              1          2          3          4          5          6
     1  C   11.379477  -0.770666  -1.945955   3.897044  -2.518252  -1.370996
     2  C   -0.770666  15.258173  -2.592712  -5.872545   4.306468  -3.490509
     3  C   -1.945955  -2.592712  26.015980  -0.162447 -10.199140   6.371549
     4  C    3.897044  -5.872545  -0.162447  33.540339 -11.257062  -8.598660
     5  C   -2.518252   4.306468 -10.199140 -11.257062  40.858876  -5.505497
     6  C   -1.370996  -3.490509   6.371549  -8.598660  -5.505497  25.105827
     7  C   -1.748780   0.955124  -1.636004  -4.748750  -1.153104   0.187566
     8  C   -1.089374   0.441726   1.028878  -2.088791  -2.619732   0.965347
     9  C   -0.115882  -0.074386 -12.394920  -9.225986  16.391447  -1.255873
    10  C    0.455654  -0.148839  -0.528232  15.754299  -9.227491  -5.177146
    11  C    0.375631  -1.432499   3.650661  -0.530489 -12.394656  -0.429587
    12  H    0.007351   0.065426  -0.046038  -0.268273  -0.223661  -0.144754
    13  H   -0.000008  -0.369041   1.009167  -0.040455  -0.065602   0.396883
    14  C   -0.129913  -0.906334  -1.431950  -0.149392  -0.075677   0.816736
    15  C    0.067510  -0.129931   0.376005   0.456544  -0.115207  -0.156558
    16  C   -0.156623   0.816868  -0.430529  -5.177972  -1.256135  -1.758801
    17  H    0.528484  -0.117216  -0.060680   0.045338   0.003313  -0.094090
    18  H   -0.165368   0.523344  -0.184968   0.015944   0.093338  -0.098488
    19  H   -0.327389  -0.024295   0.223252  -0.134870  -0.218950   0.721578
    20  H    0.067562  -0.002103  -0.083520   0.134363  -0.038278  -0.155433
    21  H   -0.002020  -0.005156   0.032507   0.092653  -0.086360   0.032481
    22  H   -0.003109  -0.001948  -0.006821   0.061192   0.031021   0.008762
    23  H    0.000561  -0.002344  -0.009267  -0.009162   0.005536  -0.001057
    24  H   -0.004566   0.007028   0.013825  -0.017087  -0.051644  -0.020930
              7          8          9         10         11         12
     1  C   -1.748780  -1.089374  -0.115882   0.455654   0.375631   0.007351
     2  C    0.955124   0.441726  -0.074386  -0.148839  -1.432499   0.065426
     3  C   -1.636004   1.028878 -12.394920  -0.528232   3.650661  -0.046038
     4  C   -4.748750  -2.088791  -9.225986  15.754299  -0.530489  -0.268273
     5  C   -1.153104  -2.619732  16.391447  -9.227491 -12.394656  -0.223661
     6  C    0.187566   0.965347  -1.255873  -5.177146  -0.429587  -0.144754
     7  C   15.646360   1.684243  -2.621221  -2.089351   1.029527   0.020444
     8  C    1.684243  15.644910  -1.152021  -4.748803  -1.635663  -0.064919
     9  C   -2.621221  -1.152021  40.858700 -11.259487 -10.197716  -0.065596
    10  C   -2.089351  -4.748803 -11.259487  33.543697  -0.163592  -0.040458
    11  C    1.029527  -1.635663 -10.197716  -0.163592  26.014182   1.009062
    12  H    0.020444  -0.064919  -0.065596  -0.040458   1.009062   0.737608
    13  H   -0.064925   0.020446  -0.223697  -0.268238  -0.046012  -0.069124
    14  C    0.441849   0.954686   4.305605  -5.873478  -2.589466  -0.368950
    15  C   -1.090158  -1.749299  -2.517506   3.899457  -1.948443  -0.000119
    16  C    0.965767   0.186791  -5.506004  -8.600577   6.373300   0.396958
    17  H   -0.003145  -0.000554   0.005531  -0.009172  -0.009271  -0.001051
    18  H    0.000507  -0.005192   0.031034   0.061188  -0.006825   0.007924
    19  H    0.037518   0.064256  -0.051629  -0.017039   0.013838  -0.000960
    20  H    0.457390  -0.177295  -0.086393   0.092629   0.032504   0.001093
    21  H   -0.177312   0.457391  -0.038222   0.134405  -0.083553  -0.001305
    22  H   -0.005196   0.000499   0.093353   0.015927  -0.184946  -0.047616
    23  H   -0.000556  -0.003131   0.003327   0.045336  -0.060685   0.002805
    24  H    0.064289   0.037561  -0.219093  -0.134928   0.223284   0.007196
             13         14         15         16         17         18
     1  C   -0.000008  -0.129913   0.067510  -0.156623   0.528484  -0.165368
     2  C   -0.369041  -0.906334  -0.129931   0.816868  -0.117216   0.523344
     3  C    1.009167  -1.431950   0.376005  -0.430529  -0.060680  -0.184968
     4  C   -0.040455  -0.149392   0.456544  -5.177972   0.045338   0.015944
     5  C   -0.065602  -0.075677  -0.115207  -1.256135   0.003313   0.093338
     6  C    0.396883   0.816736  -0.156558  -1.758801  -0.094090  -0.098488
     7  C   -0.064925   0.441849  -1.090158   0.965767  -0.003145   0.000507
     8  C    0.020446   0.954686  -1.749299   0.186791  -0.000554  -0.005192
     9  C   -0.223697   4.305605  -2.517506  -5.506004   0.005531   0.031034
    10  C   -0.268238  -5.873478   3.899457  -8.600577  -0.009172   0.061188
    11  C   -0.046012  -2.589466  -1.948443   6.373300  -0.009271  -0.006825
    12  H   -0.069124  -0.368950  -0.000119   0.396958  -0.001051   0.007924
    13  H    0.737622   0.065392   0.007390  -0.144803   0.002804  -0.047615
    14  C    0.065392  15.257862  -0.770286  -3.490204  -0.002344  -0.001947
    15  C    0.007390  -0.770286  11.380421  -1.373676   0.000562  -0.003110
    16  C   -0.144803  -3.490204  -1.373676  25.111066  -0.001058   0.008763
    17  H    0.002804  -0.002344   0.000562  -0.001058   0.578416  -0.021898
    18  H   -0.047615  -0.001947  -0.003110   0.008763  -0.021898   0.587963
    19  H    0.007195   0.007029  -0.004565  -0.020930  -0.027992   0.000513
    20  H   -0.001305  -0.005157  -0.002021   0.032511   0.002374   0.000135
    21  H    0.001093  -0.002106   0.067585  -0.155548  -0.000197  -0.000222
    22  H    0.007924   0.523339  -0.165312  -0.098541   0.000016  -0.000058
    23  H   -0.001051  -0.117231   0.528452  -0.094088  -0.000004   0.000016
    24  H   -0.000961  -0.024287  -0.327415   0.721776  -0.000030   0.000142
             19         20         21         22         23         24
     1  C   -0.327389   0.067562  -0.002020  -0.003109   0.000561  -0.004566
     2  C   -0.024295  -0.002103  -0.005156  -0.001948  -0.002344   0.007028
     3  C    0.223252  -0.083520   0.032507  -0.006821  -0.009267   0.013825
     4  C   -0.134870   0.134363   0.092653   0.061192  -0.009162  -0.017087
     5  C   -0.218950  -0.038278  -0.086360   0.031021   0.005536  -0.051644
     6  C    0.721578  -0.155433   0.032481   0.008762  -0.001057  -0.020930
     7  C    0.037518   0.457390  -0.177312  -0.005196  -0.000556   0.064289
     8  C    0.064256  -0.177295   0.457391   0.000499  -0.003131   0.037561
     9  C   -0.051629  -0.086393  -0.038222   0.093353   0.003327  -0.219093
    10  C   -0.017039   0.092629   0.134405   0.015927   0.045336  -0.134928
    11  C    0.013838   0.032504  -0.083553  -0.184946  -0.060685   0.223284
    12  H   -0.000960   0.001093  -0.001305  -0.047616   0.002805   0.007196
    13  H    0.007195  -0.001305   0.001093   0.007924  -0.001051  -0.000961
    14  C    0.007029  -0.005157  -0.002106   0.523339  -0.117231  -0.024287
    15  C   -0.004565  -0.002021   0.067585  -0.165312   0.528452  -0.327415
    16  C   -0.020930   0.032511  -0.155548  -0.098541  -0.094088   0.721776
    17  H   -0.027992   0.002374  -0.000197   0.000016  -0.000004  -0.000030
    18  H    0.000513   0.000135  -0.000222  -0.000058   0.000016   0.000142
    19  H    0.615906  -0.007954   0.002450   0.000142  -0.000030   0.000581
    20  H   -0.007954   0.607001  -0.026358  -0.000222  -0.000197   0.002449
    21  H    0.002450  -0.026358   0.607025   0.000135   0.002375  -0.007955
    22  H    0.000142  -0.000222   0.000135   0.587980  -0.021898   0.000510
    23  H   -0.000030  -0.000197   0.002375  -0.021898   0.578421  -0.027989
    24  H    0.000581   0.002449  -0.007955   0.000510  -0.027989   0.615893
 Mulliken atomic charges:
              1
     1  C   -0.430374
     2  C   -0.433632
     3  C   -1.008640
     4  C    0.284225
     5  C    1.316450
     6  C   -0.348350
     7  C   -0.152081
     8  C   -0.151958
     9  C    1.316636
    10  C    0.284237
    11  C   -1.008588
    12  H    0.086958
    13  H    0.086921
    14  C   -0.433778
    15  C   -0.430322
    16  C   -0.348311
    17  H    0.181865
    18  H    0.204879
    19  H    0.142347
    20  H    0.156225
    21  H    0.156213
    22  H    0.204866
    23  H    0.181862
    24  H    0.142351
 Sum of Mulliken atomic charges =   0.00000
 Mulliken charges with hydrogens summed into heavy atoms:
              1
     1  C   -0.248509
     2  C   -0.228753
     3  C   -0.921719
     4  C    0.284225
     5  C    1.316450
     6  C   -0.206004
     7  C    0.004144
     8  C    0.004254
     9  C    1.316636
    10  C    0.284237
    11  C   -0.921629
    14  C   -0.228911
    15  C   -0.248460
    16  C   -0.205960
 Sum of Mulliken charges with hydrogens summed into heavy atoms =   0.00000
 Electronic spatial extent (au):  <R**2>=           2624.7741
 Charge=              0.0000 electrons
 Dipole moment (field-independent basis, Debye):
    X=              0.0287    Y=              0.0150    Z=              0.0000  Tot=              0.0324
 Quadrupole moment (field-independent basis, Debye-Ang):
   XX=            -72.7980   YY=            -72.4929   ZZ=            -90.3012
   XY=             -0.2201   XZ=              0.0000   YZ=              0.0000
 Traceless Quadrupole moment (field-independent basis, Debye-Ang):
   XX=              5.7327   YY=              6.0378   ZZ=            -11.7705
   XY=             -0.2201   XZ=              0.0000   YZ=              0.0000
 Octapole moment (field-independent basis, Debye-Ang**2):
  XXX=              0.9421  YYY=              0.8299  ZZZ=              0.0000  XYY=              0.3672
  XXY=             -0.1453  XXZ=              0.0000  XZZ=             -0.1724  YZZ=             -0.0896
  YYZ=              0.0000  XYZ=              0.0000
 Hexadecapole moment (field-independent basis, Debye-Ang**3):
 XXXX=          -1234.0066 YYYY=          -2090.1383 ZZZZ=           -111.1682 XXXY=            304.6484
 XXXZ=              0.0000 YYYX=            308.2503 YYYZ=              0.0000 ZZZX=              0.0000
 ZZZY=              0.0000 XXYY=           -554.8972 XXZZ=           -274.8505 YYZZ=           -454.4414
 XXYZ=              0.0000 YYXZ=              0.0000 ZZXY=            128.5731
 N-N= 7.753965185822D+02 E-N=-2.800319086018D+03  KE= 5.378171871110D+02
 Symmetry A'   KE= 5.227438770669D+02
 Symmetry A"   KE= 1.507331004414D+01
 No NMR shielding tensors so no spin-rotation constants.
 Leave Link  601 at Fri Dec  3 12:47:02 2021, MaxMem=  498073600 cpu:       4.6
 (Enter /apps/software//g09/l9999.exe)
 1\1\GINC-DLT06\SP\RMP2-FC\6-311++G(d,p)\C14H10\ITAMAR\03-Dec-2021\0\\#
 P MP2/6-311++G** DENSITY=MP2\\Phenan\\0,1\C,0,1.907313,-3.017175,0.\C,
 0,2.685629,-1.846679,0.\C,0,2.080243,-0.605325,0.\C,0,0.673458,-0.4704
 16,0.\C,0,-0.110005,-1.66032,0.\C,0,0.532164,-2.919243,0.\C,0,-1.54130
 3,-1.568725,0.\C,0,-2.168682,-0.365155,0.\C,0,-1.424136,0.860572,0.\C,
 0,0.,0.821402,0.\C,0,0.694915,2.051932,0.\H,0,1.777163,2.061414,0.\H,0
 ,2.707622,0.276555,0.\C,0,0.023855,3.25908,0.\C,0,-1.381438,3.291335,0
 .\C,0,-2.088558,2.107921,0.\H,0,2.387079,-3.989357,0.\H,0,3.767637,-1.
 916957,0.\H,0,-0.08018,-3.815163,0.\H,0,-2.116109,-2.489029,0.\H,0,-3.
 252311,-0.309323,0.\H,0,0.585819,4.186369,0.\H,0,-1.903732,4.241343,0.
 \H,0,-3.173718,2.118929,0.\\Version=EM64L-G09RevA.02\State=1-A'\HF=-53
 6.1199432\MP2=-538.0333475\RMSD=8.228e-09\Dipole=0.0112808,0.0059144,0
 .\Quadrupole=4.2621322,4.4889424,-8.7510746,-0.1636605,0.,0.\PG=CS [SG
 (C14H10)]\\@


 THE RARE EARTHS PERPLEX US IN OUR RESEARCHES,
 BAFFLE US IN OUR SPECULATIONS, AND HAUNT US IN OUR
 VERY DREAMS.  THEY STRETCH LIKE AN UNKNOWN BEFORE US,
 MOCKING, MYSTIFYING, AND MURMURING STRANGE REVELATIONS
 AND POSSIBILITIES.  -- SIR WILLIAM CROOKE, 1832-1919
 Job cpu time:  0 days  2 hours  4 minutes  8.8 seconds.
 File lengths (MBytes):  RWF=  23994 Int=      0 D2E=      0 Chk=     11 Scr=      1
 Normal termination of Gaussian 09 at Fri Dec  3 12:47:05 2021.
