Bla-0.25                                                                
SP        RMP2-FC                                                     6-311++G(d,p)       
Number of atoms                            I               12
Info1-9                                    I   N=           9
          23          21           0           0           0         110
           1           2           1
Charge                                     I                0
Multiplicity                               I                1
Number of electrons                        I               42
Number of alpha electrons                  I               21
Number of beta electrons                   I               21
Number of basis functions                  I              174
Number of independent functions            I              173
Number of point charges in /Mol/           I                0
Number of translation vectors              I                0
Atomic numbers                             I   N=          12
           6           6           6           6           6           6
           1           1           1           1           1           1
Nuclear charges                            R   N=          12
  6.00000000E+00  6.00000000E+00  6.00000000E+00  6.00000000E+00  6.00000000E+00
  6.00000000E+00  1.00000000E+00  1.00000000E+00  1.00000000E+00  1.00000000E+00
  1.00000000E+00  1.00000000E+00
Current cartesian coordinates              R   N=          36
  1.19965862E+00  2.35062656E+00  0.00000000E+00  2.63553162E+00 -1.36378437E-01
 -1.75843728E-16  1.43587300E+00 -2.21424812E+00  0.00000000E+00 -1.43587300E+00
 -2.21424812E+00  3.22759537E-16 -2.63553162E+00 -1.36378437E-01  0.00000000E+00
 -1.19965862E+00  2.35062656E+00 -1.46915809E-16  2.22429081E+00  4.12534396E+00
  0.00000000E+00  4.68479807E+00 -1.36379635E-01 -3.01325234E-16  2.46050726E+00
 -3.98896432E+00  0.00000000E+00 -2.46050726E+00 -3.98896432E+00  5.73722296E-16
 -4.68479807E+00 -1.36379635E-01  0.00000000E+00 -2.22429081E+00  4.12534396E+00
 -2.72397062E-16
Force Field                                I                0
Int Atom Types                             I   N=          12
           0           0           0           0           0           0
           0           0           0           0           0           0
MM charges                                 R   N=          12
  0.00000000E+00  0.00000000E+00  0.00000000E+00  0.00000000E+00  0.00000000E+00
  0.00000000E+00  0.00000000E+00  0.00000000E+00  0.00000000E+00  0.00000000E+00
  0.00000000E+00  0.00000000E+00
Integer atomic weights                     I   N=          12
          12          12          12          12          12          12
           1           1           1           1           1           1
Real atomic weights                        R   N=          12
  1.20000000E+01  1.20000000E+01  1.20000000E+01  1.20000000E+01  1.20000000E+01
  1.20000000E+01  1.00782504E+00  1.00782504E+00  1.00782504E+00  1.00782504E+00
  1.00782504E+00  1.00782504E+00
Atom fragment info                         I   N=          12
           0           0           0           0           0           0
           0           0           0           0           0           0
Atom residue num                           I   N=          12
           0           0           0           0           0           0
           0           0           0           0           0           0
Nuclear spins                              I   N=          12
           0           0           0           0           0           0
           1           1           1           1           1           1
Nuclear ZEff                               R   N=          12
 -3.60000000E+00 -3.60000000E+00 -3.60000000E+00 -3.60000000E+00 -3.60000000E+00
 -3.60000000E+00 -1.00000000E+00 -1.00000000E+00 -1.00000000E+00 -1.00000000E+00
 -1.00000000E+00 -1.00000000E+00
Nuclear QMom                               R   N=          12
  0.00000000E+00  0.00000000E+00  0.00000000E+00  0.00000000E+00  0.00000000E+00
  0.00000000E+00  0.00000000E+00  0.00000000E+00  0.00000000E+00  0.00000000E+00
  0.00000000E+00  0.00000000E+00
Nuclear GFac                               R   N=          12
  0.00000000E+00  0.00000000E+00  0.00000000E+00  0.00000000E+00  0.00000000E+00
  0.00000000E+00  2.79284600E+00  2.79284600E+00  2.79284600E+00  2.79284600E+00
  2.79284600E+00  2.79284600E+00
MicOpt                                     I   N=          12
          -1          -1          -1          -1          -1          -1
          -1          -1          -1          -1          -1          -1
Number of contracted shells                I               66
Number of primitive shells                 I              120
Pure/Cartesian d shells                    I                0
Pure/Cartesian f shells                    I                0
Highest angular momentum                   I                2
Largest degree of contraction              I                6
Shell types                                I   N=          66
           0          -1          -1          -1          -1          -2
           0          -1          -1          -1          -1          -2
           0          -1          -1          -1          -1          -2
           0          -1          -1          -1          -1          -2
           0          -1          -1          -1          -1          -2
           0          -1          -1          -1          -1          -2
           0           0           0           0           1           0
           0           0           0           1           0           0
           0           0           1           0           0           0
           0           1           0           0           0           0
           1           0           0           0           0           1
Number of primitives per shell             I   N=          66
           6           3           1           1           1           1
           6           3           1           1           1           1
           6           3           1           1           1           1
           6           3           1           1           1           1
           6           3           1           1           1           1
           6           3           1           1           1           1
           3           1           1           1           1           3
           1           1           1           1           3           1
           1           1           1           3           1           1
           1           1           3           1           1           1
           1           3           1           1           1           1
Shell to atom map                          I   N=          66
           1           1           1           1           1           1
           2           2           2           2           2           2
           3           3           3           3           3           3
           4           4           4           4           4           4
           5           5           5           5           5           5
           6           6           6           6           6           6
           7           7           7           7           7           8
           8           8           8           8           9           9
           9           9           9          10          10          10
          10          10          11          11          11          11
          11          12          12          12          12          12
Primitive exponents                        R   N=         120
  4.56324000E+03  6.82024000E+02  1.54973000E+02  4.44553000E+01  1.30290000E+01
  1.82773000E+00  2.09642000E+01  4.80331000E+00  1.45933000E+00  4.83456000E-01
  1.45585000E-01  4.38000000E-02  6.26000000E-01  4.56324000E+03  6.82024000E+02
  1.54973000E+02  4.44553000E+01  1.30290000E+01  1.82773000E+00  2.09642000E+01
  4.80331000E+00  1.45933000E+00  4.83456000E-01  1.45585000E-01  4.38000000E-02
  6.26000000E-01  4.56324000E+03  6.82024000E+02  1.54973000E+02  4.44553000E+01
  1.30290000E+01  1.82773000E+00  2.09642000E+01  4.80331000E+00  1.45933000E+00
  4.83456000E-01  1.45585000E-01  4.38000000E-02  6.26000000E-01  4.56324000E+03
  6.82024000E+02  1.54973000E+02  4.44553000E+01  1.30290000E+01  1.82773000E+00
  2.09642000E+01  4.80331000E+00  1.45933000E+00  4.83456000E-01  1.45585000E-01
  4.38000000E-02  6.26000000E-01  4.56324000E+03  6.82024000E+02  1.54973000E+02
  4.44553000E+01  1.30290000E+01  1.82773000E+00  2.09642000E+01  4.80331000E+00
  1.45933000E+00  4.83456000E-01  1.45585000E-01  4.38000000E-02  6.26000000E-01
  4.56324000E+03  6.82024000E+02  1.54973000E+02  4.44553000E+01  1.30290000E+01
  1.82773000E+00  2.09642000E+01  4.80331000E+00  1.45933000E+00  4.83456000E-01
  1.45585000E-01  4.38000000E-02  6.26000000E-01  3.38650000E+01  5.09479000E+00
  1.15879000E+00  3.25840000E-01  1.02741000E-01  3.60000000E-02  7.50000000E-01
  3.38650000E+01  5.09479000E+00  1.15879000E+00  3.25840000E-01  1.02741000E-01
  3.60000000E-02  7.50000000E-01  3.38650000E+01  5.09479000E+00  1.15879000E+00
  3.25840000E-01  1.02741000E-01  3.60000000E-02  7.50000000E-01  3.38650000E+01
  5.09479000E+00  1.15879000E+00  3.25840000E-01  1.02741000E-01  3.60000000E-02
  7.50000000E-01  3.38650000E+01  5.09479000E+00  1.15879000E+00  3.25840000E-01
  1.02741000E-01  3.60000000E-02  7.50000000E-01  3.38650000E+01  5.09479000E+00
  1.15879000E+00  3.25840000E-01  1.02741000E-01  3.60000000E-02  7.50000000E-01
Contraction coefficients                   R   N=         120
  1.96665025E-03  1.52306019E-02  7.61269097E-02  2.60801033E-01  6.16462078E-01
  2.21006028E-01  1.14660081E-01  9.19999648E-01 -3.03068213E-03  1.00000000E+00
  1.00000000E+00  1.00000000E+00  1.00000000E+00  1.96665025E-03  1.52306019E-02
  7.61269097E-02  2.60801033E-01  6.16462078E-01  2.21006028E-01  1.14660081E-01
  9.19999648E-01 -3.03068213E-03  1.00000000E+00  1.00000000E+00  1.00000000E+00
  1.00000000E+00  1.96665025E-03  1.52306019E-02  7.61269097E-02  2.60801033E-01
  6.16462078E-01  2.21006028E-01  1.14660081E-01  9.19999648E-01 -3.03068213E-03
  1.00000000E+00  1.00000000E+00  1.00000000E+00  1.00000000E+00  1.96665025E-03
  1.52306019E-02  7.61269097E-02  2.60801033E-01  6.16462078E-01  2.21006028E-01
  1.14660081E-01  9.19999648E-01 -3.03068213E-03  1.00000000E+00  1.00000000E+00
  1.00000000E+00  1.00000000E+00  1.96665025E-03  1.52306019E-02  7.61269097E-02
  2.60801033E-01  6.16462078E-01  2.21006028E-01  1.14660081E-01  9.19999648E-01
 -3.03068213E-03  1.00000000E+00  1.00000000E+00  1.00000000E+00  1.00000000E+00
  1.96665025E-03  1.52306019E-02  7.61269097E-02  2.60801033E-01  6.16462078E-01
  2.21006028E-01  1.14660081E-01  9.19999648E-01 -3.03068213E-03  1.00000000E+00
  1.00000000E+00  1.00000000E+00  1.00000000E+00  2.54938145E-02  1.90373109E-01
  8.52161486E-01  1.00000000E+00  1.00000000E+00  1.00000000E+00  1.00000000E+00
  2.54938145E-02  1.90373109E-01  8.52161486E-01  1.00000000E+00  1.00000000E+00
  1.00000000E+00  1.00000000E+00  2.54938145E-02  1.90373109E-01  8.52161486E-01
  1.00000000E+00  1.00000000E+00  1.00000000E+00  1.00000000E+00  2.54938145E-02
  1.90373109E-01  8.52161486E-01  1.00000000E+00  1.00000000E+00  1.00000000E+00
  1.00000000E+00  2.54938145E-02  1.90373109E-01  8.52161486E-01  1.00000000E+00
  1.00000000E+00  1.00000000E+00  1.00000000E+00  2.54938145E-02  1.90373109E-01
  8.52161486E-01  1.00000000E+00  1.00000000E+00  1.00000000E+00  1.00000000E+00
P(S=P) Contraction coefficients            R   N=         120
  0.00000000E+00  0.00000000E+00  0.00000000E+00  0.00000000E+00  0.00000000E+00
  0.00000000E+00  4.02486927E-02  2.37593957E-01  8.15853851E-01  1.00000000E+00
  1.00000000E+00  1.00000000E+00  0.00000000E+00  0.00000000E+00  0.00000000E+00
  0.00000000E+00  0.00000000E+00  0.00000000E+00  0.00000000E+00  4.02486927E-02
  2.37593957E-01  8.15853851E-01  1.00000000E+00  1.00000000E+00  1.00000000E+00
  0.00000000E+00  0.00000000E+00  0.00000000E+00  0.00000000E+00  0.00000000E+00
  0.00000000E+00  0.00000000E+00  4.02486927E-02  2.37593957E-01  8.15853851E-01
  1.00000000E+00  1.00000000E+00  1.00000000E+00  0.00000000E+00  0.00000000E+00
  0.00000000E+00  0.00000000E+00  0.00000000E+00  0.00000000E+00  0.00000000E+00
  4.02486927E-02  2.37593957E-01  8.15853851E-01  1.00000000E+00  1.00000000E+00
  1.00000000E+00  0.00000000E+00  0.00000000E+00  0.00000000E+00  0.00000000E+00
  0.00000000E+00  0.00000000E+00  0.00000000E+00  4.02486927E-02  2.37593957E-01
  8.15853851E-01  1.00000000E+00  1.00000000E+00  1.00000000E+00  0.00000000E+00
  0.00000000E+00  0.00000000E+00  0.00000000E+00  0.00000000E+00  0.00000000E+00
  0.00000000E+00  4.02486927E-02  2.37593957E-01  8.15853851E-01  1.00000000E+00
  1.00000000E+00  1.00000000E+00  0.00000000E+00  0.00000000E+00  0.00000000E+00
  0.00000000E+00  0.00000000E+00  0.00000000E+00  0.00000000E+00  0.00000000E+00
  0.00000000E+00  0.00000000E+00  0.00000000E+00  0.00000000E+00  0.00000000E+00
  0.00000000E+00  0.00000000E+00  0.00000000E+00  0.00000000E+00  0.00000000E+00
  0.00000000E+00  0.00000000E+00  0.00000000E+00  0.00000000E+00  0.00000000E+00
  0.00000000E+00  0.00000000E+00  0.00000000E+00  0.00000000E+00  0.00000000E+00
  0.00000000E+00  0.00000000E+00  0.00000000E+00  0.00000000E+00  0.00000000E+00
  0.00000000E+00  0.00000000E+00  0.00000000E+00  0.00000000E+00  0.00000000E+00
  0.00000000E+00  0.00000000E+00  0.00000000E+00  0.00000000E+00  0.00000000E+00
Coordinates of each shell                  R   N=         198
  1.19965862E+00  2.35062656E+00  0.00000000E+00  1.19965862E+00  2.35062656E+00
  0.00000000E+00  1.19965862E+00  2.35062656E+00  0.00000000E+00  1.19965862E+00
  2.35062656E+00  0.00000000E+00  1.19965862E+00  2.35062656E+00  0.00000000E+00
  1.19965862E+00  2.35062656E+00  0.00000000E+00  2.63553162E+00 -1.36378437E-01
 -1.75843728E-16  2.63553162E+00 -1.36378437E-01 -1.75843728E-16  2.63553162E+00
 -1.36378437E-01 -1.75843728E-16  2.63553162E+00 -1.36378437E-01 -1.75843728E-16
  2.63553162E+00 -1.36378437E-01 -1.75843728E-16  2.63553162E+00 -1.36378437E-01
 -1.75843728E-16  1.43587300E+00 -2.21424812E+00  0.00000000E+00  1.43587300E+00
 -2.21424812E+00  0.00000000E+00  1.43587300E+00 -2.21424812E+00  0.00000000E+00
  1.43587300E+00 -2.21424812E+00  0.00000000E+00  1.43587300E+00 -2.21424812E+00
  0.00000000E+00  1.43587300E+00 -2.21424812E+00  0.00000000E+00 -1.43587300E+00
 -2.21424812E+00  3.22759537E-16 -1.43587300E+00 -2.21424812E+00  3.22759537E-16
 -1.43587300E+00 -2.21424812E+00  3.22759537E-16 -1.43587300E+00 -2.21424812E+00
  3.22759537E-16 -1.43587300E+00 -2.21424812E+00  3.22759537E-16 -1.43587300E+00
 -2.21424812E+00  3.22759537E-16 -2.63553162E+00 -1.36378437E-01  0.00000000E+00
 -2.63553162E+00 -1.36378437E-01  0.00000000E+00 -2.63553162E+00 -1.36378437E-01
  0.00000000E+00 -2.63553162E+00 -1.36378437E-01  0.00000000E+00 -2.63553162E+00
 -1.36378437E-01  0.00000000E+00 -2.63553162E+00 -1.36378437E-01  0.00000000E+00
 -1.19965862E+00  2.35062656E+00 -1.46915809E-16 -1.19965862E+00  2.35062656E+00
 -1.46915809E-16 -1.19965862E+00  2.35062656E+00 -1.46915809E-16 -1.19965862E+00
  2.35062656E+00 -1.46915809E-16 -1.19965862E+00  2.35062656E+00 -1.46915809E-16
 -1.19965862E+00  2.35062656E+00 -1.46915809E-16  2.22429081E+00  4.12534396E+00
  0.00000000E+00  2.22429081E+00  4.12534396E+00  0.00000000E+00  2.22429081E+00
  4.12534396E+00  0.00000000E+00  2.22429081E+00  4.12534396E+00  0.00000000E+00
  2.22429081E+00  4.12534396E+00  0.00000000E+00  4.68479807E+00 -1.36379635E-01
 -3.01325234E-16  4.68479807E+00 -1.36379635E-01 -3.01325234E-16  4.68479807E+00
 -1.36379635E-01 -3.01325234E-16  4.68479807E+00 -1.36379635E-01 -3.01325234E-16
  4.68479807E+00 -1.36379635E-01 -3.01325234E-16  2.46050726E+00 -3.98896432E+00
  0.00000000E+00  2.46050726E+00 -3.98896432E+00  0.00000000E+00  2.46050726E+00
 -3.98896432E+00  0.00000000E+00  2.46050726E+00 -3.98896432E+00  0.00000000E+00
  2.46050726E+00 -3.98896432E+00  0.00000000E+00 -2.46050726E+00 -3.98896432E+00
  5.73722296E-16 -2.46050726E+00 -3.98896432E+00  5.73722296E-16 -2.46050726E+00
 -3.98896432E+00  5.73722296E-16 -2.46050726E+00 -3.98896432E+00  5.73722296E-16
 -2.46050726E+00 -3.98896432E+00  5.73722296E-16 -4.68479807E+00 -1.36379635E-01
  0.00000000E+00 -4.68479807E+00 -1.36379635E-01  0.00000000E+00 -4.68479807E+00
 -1.36379635E-01  0.00000000E+00 -4.68479807E+00 -1.36379635E-01  0.00000000E+00
 -4.68479807E+00 -1.36379635E-01  0.00000000E+00 -2.22429081E+00  4.12534396E+00
 -2.72397062E-16 -2.22429081E+00  4.12534396E+00 -2.72397062E-16 -2.22429081E+00
  4.12534396E+00 -2.72397062E-16 -2.22429081E+00  4.12534396E+00 -2.72397062E-16
 -2.22429081E+00  4.12534396E+00 -2.72397062E-16
Constraint Structure                       R   N=          36
  1.19965862E+00  2.35062656E+00  0.00000000E+00  2.63553162E+00 -1.36378437E-01
 -1.75843728E-16  1.43587300E+00 -2.21424812E+00  0.00000000E+00 -1.43587300E+00
 -2.21424812E+00  3.22759537E-16 -2.63553162E+00 -1.36378437E-01  0.00000000E+00
 -1.19965862E+00  2.35062656E+00 -1.46915809E-16  2.22429081E+00  4.12534396E+00
  0.00000000E+00  4.68479807E+00 -1.36379635E-01 -3.01325234E-16  2.46050726E+00
 -3.98896432E+00  0.00000000E+00 -2.46050726E+00 -3.98896432E+00  5.73722296E-16
 -4.68479807E+00 -1.36379635E-01  0.00000000E+00 -2.22429081E+00  4.12534396E+00
 -2.72397062E-16
Num ILSW                                   I              100
ILSW                                       I   N=         100
           0           0           0           0           2           0
           0           0           0           0           0          -1
           0           0           0           0           0           0
           0           0           0           0           0           0
           1           0           0           0           0           0
           0           0      100000           0          -1           0
           0           0           0           0           0           0
           0           0           0           1           0           0
           0           0           1           0           0           0
           0           0           4          40           0           0
           0           0           0           0           0           0
           0           0           0           0           0           0
           0           0           0           0           0           0
           0           0           0           0           0           0
           0           0           0           0           0           0
           0           0           0           0           0           0
           0           0           0           0
Num RLSW                                   I               40
RLSW                                       R   N=          40
  1.00000000E+00  1.00000000E+00  1.00000000E+00  1.00000000E+00  1.00000000E+00
  0.00000000E+00  0.00000000E+00  1.00000000E+00  0.00000000E+00  0.00000000E+00
  0.00000000E+00  0.00000000E+00  1.00000000E+00  0.00000000E+00  0.00000000E+00
  0.00000000E+00  0.00000000E+00  1.00000000E+00  0.00000000E+00  0.00000000E+00
  0.00000000E+00  0.00000000E+00  1.00000000E+00  0.00000000E+00  0.00000000E+00
  0.00000000E+00  0.00000000E+00  1.00000000E+00  0.00000000E+00  0.00000000E+00
  0.00000000E+00  0.00000000E+00  0.00000000E+00  0.00000000E+00  0.00000000E+00
  0.00000000E+00  0.00000000E+00  0.00000000E+00  1.00000000E+00  1.00000000E+00
MxBond                                     I                3
NBond                                      I   N=          12
           3           3           3           3           3           3
           1           1           1           1           1           1
IBond                                      I   N=          36
           2           6           7           1           3           8
           2           4           9           3           5          10
           4           6          11           1           5          12
           1           0           0           2           0           0
           3           0           0           4           0           0
           5           0           0           6           0           0
RBond                                      R   N=          36
  1.00000000E+00  2.00000000E+00  1.00000000E+00  1.00000000E+00  2.00000000E+00
  1.00000000E+00  2.00000000E+00  1.00000000E+00  1.00000000E+00  1.00000000E+00
  2.00000000E+00  1.00000000E+00  2.00000000E+00  1.00000000E+00  1.00000000E+00
  2.00000000E+00  1.00000000E+00  1.00000000E+00  1.00000000E+00  0.00000000E+00
  0.00000000E+00  1.00000000E+00  0.00000000E+00  0.00000000E+00  1.00000000E+00
  0.00000000E+00  0.00000000E+00  1.00000000E+00  0.00000000E+00  0.00000000E+00
  1.00000000E+00  0.00000000E+00  0.00000000E+00  1.00000000E+00  0.00000000E+00
  0.00000000E+00
Virial Ratio                               R      1.999238861524141E+00
SCF Energy                                 R     -2.307119902916374E+02
MP2 Energy                                 R     -2.315265179406554E+02
Total Energy                               R     -2.315265179406554E+02
Post-SCF wavefunction norm                 R      1.137150957692057E+00
RMS Density                                R      3.866114592432076E-09
External E-field                           R   N=          35
  0.00000000E+00  0.00000000E+00  0.00000000E+00  0.00000000E+00  0.00000000E+00
  0.00000000E+00  0.00000000E+00  0.00000000E+00  0.00000000E+00  0.00000000E+00
  0.00000000E+00  0.00000000E+00  0.00000000E+00  0.00000000E+00  0.00000000E+00
  0.00000000E+00  0.00000000E+00  0.00000000E+00  0.00000000E+00  0.00000000E+00
  0.00000000E+00  0.00000000E+00  0.00000000E+00  0.00000000E+00  0.00000000E+00
  0.00000000E+00  0.00000000E+00  0.00000000E+00  0.00000000E+00  0.00000000E+00
  0.00000000E+00  0.00000000E+00  0.00000000E+00  0.00000000E+00  0.00000000E+00
IOpCl                                      I                0
IROHF                                      I                0
Alpha Orbital Energies                     R   N=         173
 -1.12302791E+01 -1.12298504E+01 -1.12298504E+01 -1.12276778E+01 -1.12276778E+01
 -1.12272143E+01 -1.15488799E+00 -1.03037707E+00 -1.03037707E+00 -8.09113244E-01
 -8.09113244E-01 -7.10249172E-01 -6.39234126E-01 -6.16626186E-01 -5.98712491E-01
 -5.98712491E-01 -5.03937221E-01 -4.76481043E-01 -4.76481043E-01 -3.55583987E-01
 -3.55583987E-01  4.24573406E-02  4.91138031E-02  4.91138031E-02  6.64695422E-02
  6.64695422E-02  9.73039073E-02  1.18532842E-01  1.18532842E-01  1.28303481E-01
  1.54594491E-01  1.54594491E-01  1.58427660E-01  1.62973973E-01  1.81105838E-01
  1.81105839E-01  1.83775875E-01  1.83775875E-01  1.93227506E-01  2.09534881E-01
  2.12705331E-01  2.12705331E-01  2.24258950E-01  2.24258950E-01  2.28548782E-01
  2.28548782E-01  2.43907695E-01  2.50405276E-01  2.50405276E-01  2.88803728E-01
  2.88803729E-01  3.08061390E-01  3.34856992E-01  3.74508007E-01  3.90590692E-01
  3.90590692E-01  4.12008001E-01  4.25694618E-01  4.25694619E-01  4.84860119E-01
  4.84860119E-01  5.33043897E-01  5.33043897E-01  5.88039264E-01  6.25935534E-01
  6.76847404E-01  7.05385713E-01  7.06159626E-01  7.06159626E-01  7.50189258E-01
  7.50189258E-01  7.70584795E-01  7.70584795E-01  7.89164591E-01  8.04563029E-01
  8.30852427E-01  8.30852427E-01  8.81645071E-01  8.91907178E-01  8.96190681E-01
  8.96190681E-01  9.76526648E-01  1.01209463E+00  1.01209463E+00  1.02588339E+00
  1.02588339E+00  1.06123021E+00  1.06410834E+00  1.06410835E+00  1.13888374E+00
  1.13888374E+00  1.15366783E+00  1.22020119E+00  1.22308926E+00  1.22308926E+00
  1.29311351E+00  1.32057807E+00  1.32057807E+00  1.41149154E+00  1.41149154E+00
  1.50529637E+00  1.54022115E+00  1.67044600E+00  1.78794161E+00  1.78794161E+00
  1.82584194E+00  1.83547157E+00  1.83547157E+00  1.85248201E+00  1.86565640E+00
  1.86565640E+00  1.97175369E+00  1.97175369E+00  1.99699062E+00  2.06292423E+00
  2.06292423E+00  2.11887897E+00  2.11887897E+00  2.13730076E+00  2.22833284E+00
  2.22833284E+00  2.24071442E+00  2.24567678E+00  2.24567678E+00  2.31057408E+00
  2.40352084E+00  2.40352084E+00  2.41245602E+00  2.41245602E+00  2.64667632E+00
  2.67069250E+00  2.72755209E+00  2.72755209E+00  2.75445116E+00  2.83077068E+00
  2.83077068E+00  2.95483339E+00  2.95483339E+00  2.97900863E+00  2.98327695E+00
  3.01057507E+00  3.01057507E+00  3.03452211E+00  3.06226621E+00  3.06226621E+00
  3.07062794E+00  3.19368467E+00  3.19368467E+00  3.29828197E+00  3.30161136E+00
  3.30161136E+00  3.32489160E+00  3.32489160E+00  3.45558495E+00  3.48171820E+00
  3.65839578E+00  3.65839578E+00  4.03133070E+00  4.05742302E+00  4.05742302E+00
  4.07424259E+00  4.37831897E+00  4.37831897E+00  4.47148509E+00  4.52698795E+00
  4.52698795E+00  5.14382503E+00  2.47265131E+01  2.48782815E+01  2.48782815E+01
  2.56693793E+01  2.57034611E+01  2.57034611E+01
Alpha MO coefficients                      R   N=       30102
  2.29859490E-01  1.90343039E-01  1.95129619E-05 -6.20698885E-05  0.00000000E+00
  2.08732226E-03 -2.22948192E-04 -1.09653263E-04  0.00000000E+00 -4.27015132E-04
  1.15314223E-05 -4.09877681E-06  0.00000000E+00 -8.34250243E-05 -1.10724360E-04
 -1.62224814E-04  0.00000000E+00 -1.34537965E-04  0.00000000E+00  0.00000000E+00
  1.59584784E-04 -1.57728886E-05  2.29859490E-01  1.90343039E-01 -4.39976193E-05
  4.79336650E-05  0.00000000E+00  2.08732226E-03 -2.06436608E-04 -1.38252166E-04
  0.00000000E+00 -4.27015132E-04  2.21606600E-06  1.20358932E-05  0.00000000E+00
 -8.34250169E-05 -1.95852993E-04 -1.47777048E-05  0.00000000E+00 -1.34537965E-04
  0.00000000E+00  0.00000000E+00 -9.34521144E-05  1.30318033E-04  2.29859490E-01
  1.90343039E-01 -6.35105812E-05  1.41362235E-05  0.00000000E+00  2.08732226E-03
  1.65115841E-05  2.47905429E-04  0.00000000E+00 -4.27015132E-04 -9.31535608E-06
 -7.93711621E-06  0.00000000E+00 -8.34250323E-05 -8.51286306E-05  1.77002516E-04
  0.00000000E+00 -1.34537965E-04  0.00000000E+00  0.00000000E+00 -6.61326700E-05
  1.46090922E-04  2.29859490E-01  1.90343039E-01  6.35105812E-05  1.41362235E-05
  0.00000000E+00  2.08732226E-03 -1.65115841E-05  2.47905429E-04  0.00000000E+00
 -4.27015132E-04  9.31535608E-06 -7.93711621E-06  0.00000000E+00 -8.34250323E-05
  8.51286306E-05  1.77002516E-04  0.00000000E+00 -1.34537965E-04  0.00000000E+00
  0.00000000E+00 -6.61326700E-05 -1.46090922E-04  2.29859490E-01  1.90343039E-01
  4.39976193E-05  4.79336650E-05  0.00000000E+00  2.08732226E-03  2.06436608E-04
 -1.38252166E-04  0.00000000E+00 -4.27015132E-04 -2.21606600E-06  1.20358932E-05
  0.00000000E+00 -8.34250169E-05  1.95852993E-04 -1.47777048E-05  0.00000000E+00
 -1.34537965E-04  0.00000000E+00  0.00000000E+00 -9.34521144E-05 -1.30318033E-04
  2.29859490E-01  1.90343039E-01 -1.95129619E-05 -6.20698885E-05  0.00000000E+00
  2.08732226E-03  2.22948192E-04 -1.09653263E-04  0.00000000E+00 -4.27015132E-04
 -1.15314223E-05 -4.09877681E-06  0.00000000E+00 -8.34250243E-05  1.10724360E-04
 -1.62224814E-04  0.00000000E+00 -1.34537965E-04  0.00000000E+00  0.00000000E+00
  1.59584784E-04  1.57728886E-05  1.81850012E-04 -9.97396200E-08  2.56034528E-04
  7.94147069E-05 -3.40995070E-05 -2.43478405E-05  0.00000000E+00  1.81850012E-04
 -9.97395783E-08  2.56034528E-04  7.94147083E-05 -3.81356019E-05 -1.73571191E-05
  0.00000000E+00  1.81850012E-04 -9.97396713E-08  2.56034528E-04  7.94147075E-05
 -4.03609487E-06  4.17049596E-05  0.00000000E+00  1.81850012E-04 -9.97396713E-08
  2.56034528E-04  7.94147075E-05  4.03609487E-06  4.17049596E-05  0.00000000E+00
  1.81850012E-04 -9.97395783E-08  2.56034528E-04  7.94147083E-05  3.81356019E-05
 -1.73571191E-05  0.00000000E+00  1.81850012E-04 -9.97396200E-08  2.56034528E-04
  7.94147069E-05  3.40995070E-05 -2.43478405E-05  0.00000000E+00  3.22000132E-01
  2.66702004E-01 -2.04866001E-05 -4.40519970E-05  0.00000000E+00  2.67603734E-03
 -4.36508648E-04  2.46263193E-04  0.00000000E+00 -6.38410690E-04  2.06003525E-04
  4.18870033E-05  0.00000000E+00  4.14410945E-04 -1.39241437E-03 -1.31117789E-03
  0.00000000E+00 -1.78158300E-04  0.00000000E+00  0.00000000E+00  3.26669621E-04
  1.13299124E-04 -1.22194096E-01 -1.01231654E-01  1.96221114E-05  7.92762463E-05
  0.00000000E+00 -9.47382985E-04 -1.14038472E-04  3.93976999E-04  0.00000000E+00
  7.68821395E-04 -3.56082796E-04 -3.16220310E-04  0.00000000E+00 -5.19336481E-03
  1.56098538E-03  1.52636517E-03  0.00000000E+00  4.99649426E-05  0.00000000E+00
  0.00000000E+00 -4.48671221E-06 -2.56748299E-04 -1.99806036E-01 -1.65470350E-01
  8.67510360E-05  1.68634554E-05  0.00000000E+00 -1.72865436E-03 -3.33111795E-05
 -1.56667696E-04  0.00000000E+00 -1.30410704E-04 -2.90868702E-05 -2.67139115E-04
  0.00000000E+00  4.77895386E-03  9.80684504E-04  2.53580413E-04  0.00000000E+00
  1.28193358E-04  0.00000000E+00  0.00000000E+00  3.68608244E-05 -1.01766086E-04
 -1.99806036E-01 -1.65470350E-01 -8.67510360E-05  1.68634554E-05  0.00000000E+00
 -1.72865436E-03  3.33111795E-05 -1.56667696E-04  0.00000000E+00 -1.30410704E-04
  2.90868702E-05 -2.67139115E-04  0.00000000E+00  4.77895386E-03 -9.80684504E-04
  2.53580413E-04  0.00000000E+00  1.28193358E-04  0.00000000E+00  0.00000000E+00
  3.68608244E-05  1.01766086E-04 -1.22194096E-01 -1.01231654E-01 -1.96221114E-05
  7.92762463E-05  0.00000000E+00 -9.47382985E-04  1.14038472E-04  3.93976999E-04
  0.00000000E+00  7.68821395E-04  3.56082796E-04 -3.16220310E-04  0.00000000E+00
 -5.19336481E-03 -1.56098538E-03  1.52636517E-03  0.00000000E+00  4.99649426E-05
  0.00000000E+00  0.00000000E+00 -4.48671221E-06  2.56748299E-04  3.22000132E-01
  2.66702004E-01  2.04866001E-05 -4.40519970E-05  0.00000000E+00  2.67603734E-03
  4.36508648E-04  2.46263193E-04  0.00000000E+00 -6.38410690E-04 -2.06003525E-04