 Entering Gaussian System, Link 0=g09
 Initial command:
 /apps/software//g09/l1.exe /scratch/itamar/2359.cluster.abaxnet/Gau-17152.inp -scrdir=/scratch/itamar/2359.cluster.abaxnet/
 Entering Link 1 = /apps/software//g09/l1.exe PID=     17153.
  
 Copyright (c) 1988,1990,1992,1993,1995,1998,2003,2009, Gaussian, Inc.
                  All Rights Reserved.
  
 This is part of the Gaussian(R) 09 program.  It is based on
 the Gaussian(R) 03 system (copyright 2003, Gaussian, Inc.),
 the Gaussian(R) 98 system (copyright 1998, Gaussian, Inc.),
 the Gaussian(R) 94 system (copyright 1995, Gaussian, Inc.),
 the Gaussian 92(TM) system (copyright 1992, Gaussian, Inc.),
 the Gaussian 90(TM) system (copyright 1990, Gaussian, Inc.),
 the Gaussian 88(TM) system (copyright 1988, Gaussian, Inc.),
 the Gaussian 86(TM) system (copyright 1986, Carnegie Mellon
 University), and the Gaussian 82(TM) system (copyright 1983,
 Carnegie Mellon University). Gaussian is a federally registered
 trademark of Gaussian, Inc.
  
 This software contains proprietary and confidential information,
 including trade secrets, belonging to Gaussian, Inc.
  
 This software is provided under written license and may be
 used, copied, transmitted, or stored only in accord with that
 written license.
  
 The following legend is applicable only to US Government
 contracts under FAR:
  
                    RESTRICTED RIGHTS LEGEND
  
 Use, reproduction and disclosure by the US Government is
 subject to restrictions as set forth in subparagraphs (a)
 and (c) of the Commercial Computer Software - Restricted
 Rights clause in FAR 52.227-19.
  
 Gaussian, Inc.
 340 Quinnipiac St., Bldg. 40, Wallingford CT 06492
  
  
 ---------------------------------------------------------------
 Warning -- This program may not be used in any manner that
 competes with the business of Gaussian, Inc. or will provide
 assistance to any competitor of Gaussian, Inc.  The licensee
 of this program is prohibited from giving any competitor of
 Gaussian, Inc. access to this program.  By using this program,
 the user acknowledges that Gaussian, Inc. is engaged in the
 business of creating and licensing software in the field of
 computational chemistry and represents and warrants to the
 licensee that it is not a competitor of Gaussian, Inc. and that
 it will not use this program in any manner prohibited above.
 ---------------------------------------------------------------
  

 Cite this work as:
 Gaussian 09, Revision A.02,
 M. J. Frisch, G. W. Trucks, H. B. Schlegel, G. E. Scuseria, 
 M. A. Robb, J. R. Cheeseman, G. Scalmani, V. Barone, B. Mennucci, 
 G. A. Petersson, H. Nakatsuji, M. Caricato, X. Li, H. P. Hratchian, 
 A. F. Izmaylov, J. Bloino, G. Zheng, J. L. Sonnenberg, M. Hada, 
 M. Ehara, K. Toyota, R. Fukuda, J. Hasegawa, M. Ishida, T. Nakajima, 
 Y. Honda, O. Kitao, H. Nakai, T. Vreven, J. A. Montgomery, Jr., 
 J. E. Peralta, F. Ogliaro, M. Bearpark, J. J. Heyd, E. Brothers, 
 K. N. Kudin, V. N. Staroverov, R. Kobayashi, J. Normand, 
 K. Raghavachari, A. Rendell, J. C. Burant, S. S. Iyengar, J. Tomasi, 
 M. Cossi, N. Rega, J. M. Millam, M. Klene, J. E. Knox, J. B. Cross, 
 V. Bakken, C. Adamo, J. Jaramillo, R. Gomperts, R. E. Stratmann, 
 O. Yazyev, A. J. Austin, R. Cammi, C. Pomelli, J. W. Ochterski, 
 R. L. Martin, K. Morokuma, V. G. Zakrzewski, G. A. Voth, 
 P. Salvador, J. J. Dannenberg, S. Dapprich, A. D. Daniels, 
 O. Farkas, J. B. Foresman, J. V. Ortiz, J. Cioslowski, 
 and D. J. Fox, Gaussian, Inc., Wallingford CT, 2009.
 
 ******************************************
 Gaussian 09:  EM64L-G09RevA.02 11-Jun-2009
                 2-Dec-2021 
 ******************************************
 %Mem=3800MB
 %NProcShared=6
 Will use up to    6 processors via shared memory.
 %chk=/home/itamar/Aromaticity-test-set/T1-BLA/025/test-mp2/bla-025.chk
 -----------------------------
 #P MP2/6-311++G** Density=MP2
 -----------------------------
 1/30=1,38=1/1;
 2/12=2,17=6,18=5,40=1/2;
 3/5=4,6=6,7=1111,11=9,16=1,25=1,30=1,71=1/1,2,3;
 4//1;
 5/5=2,38=5/2;
 8/6=4,10=2/1;
 9/15=1,16=-3/6;
 10/5=1,13=10/2;
 6/7=2,8=2,9=2,10=2,22=2/1;
 99/5=1,9=1/99;
 Leave Link    1 at Thu Dec  2 19:08:07 2021, MaxMem=  498073600 cpu:       0.2
 (Enter /apps/software//g09/l101.exe)
 --------
 Bla-0.25
 --------
 Symbolic Z-matrix:
 Charge =  0 Multiplicity = 1
 6                     0.63483   1.2439    0. 
 6                     1.39466  -0.07217   0. 
 6                     0.75983  -1.17173   0. 
 6                    -0.75983  -1.17173   0. 
 6                    -1.39466  -0.07217   0. 
 6                    -0.63483   1.2439    0. 
 1                     1.17704   2.18304   0. 
 1                     2.47909  -0.07217   0. 
 1                     1.30204  -2.11087   0. 
 1                    -1.30204  -2.11087   0. 
 1                    -2.47909  -0.07217   0. 
 1                    -1.17704   2.18304   0. 
 
 NAtoms=     12 NQM=     12 NQMF=      0 NMic=      0 NMicF=      0 NTot=     12.
                    Isotopes and Nuclear Properties:
 (Nuclear quadrupole moments (NQMom) in fm**2, nuclear magnetic moments (NMagM)
  in nuclear magnetons)

  Atom         1           2           3           4           5           6           7           8           9          10
 IAtWgt=          12          12          12          12          12          12           1           1           1           1
 AtmWgt=  12.0000000  12.0000000  12.0000000  12.0000000  12.0000000  12.0000000   1.0078250   1.0078250   1.0078250   1.0078250
 NucSpn=           0           0           0           0           0           0           1           1           1           1
 AtZEff=   0.0000000   0.0000000   0.0000000   0.0000000   0.0000000   0.0000000   0.0000000   0.0000000   0.0000000   0.0000000
 NQMom=    0.0000000   0.0000000   0.0000000   0.0000000   0.0000000   0.0000000   0.0000000   0.0000000   0.0000000   0.0000000
 NMagM=    0.0000000   0.0000000   0.0000000   0.0000000   0.0000000   0.0000000   2.7928460   2.7928460   2.7928460   2.7928460

  Atom        11          12
 IAtWgt=           1           1
 AtmWgt=   1.0078250   1.0078250
 NucSpn=           1           1
 AtZEff=   0.0000000   0.0000000
 NQMom=    0.0000000   0.0000000
 NMagM=    2.7928460   2.7928460
 Leave Link  101 at Thu Dec  2 19:08:07 2021, MaxMem=  498073600 cpu:       0.3
 (Enter /apps/software//g09/l202.exe)
                          Input orientation:                          
 ---------------------------------------------------------------------
 Center     Atomic      Atomic             Coordinates (Angstroms)
 Number     Number       Type             X           Y           Z
 ---------------------------------------------------------------------
      1          6           0        0.634832    1.243898    0.000000
      2          6           0        1.394663   -0.072169    0.000000
      3          6           0        0.759832   -1.171729    0.000000
      4          6           0       -0.759832   -1.171729    0.000000
      5          6           0       -1.394663   -0.072169    0.000000
      6          6           0       -0.634832    1.243898    0.000000
      7          1           0        1.177044    2.183038    0.000000
      8          1           0        2.479089   -0.072169    0.000000
      9          1           0        1.302044   -2.110869    0.000000
     10          1           0       -1.302044   -2.110869    0.000000
     11          1           0       -2.479089   -0.072169    0.000000
     12          1           0       -1.177044    2.183038    0.000000
 ---------------------------------------------------------------------
                    Distance matrix (angstroms):
                    1          2          3          4          5
     1  C    0.000000
     2  C    1.519663   0.000000
     3  C    2.418859   1.269662   0.000000
     4  C    2.789326   2.418859   1.519664   0.000000
     5  C    2.418860   2.789326   2.418859   1.269662   0.000000
     6  C    1.269664   2.418860   2.789326   2.418859   1.519663
     7  H    1.084425   2.265682   3.380611   3.873751   3.420473
     8  H    2.265682   1.084426   2.040803   3.420474   3.873752
     9  H    3.420473   2.040803   1.084425   2.265682   3.380610
    10  H    3.873751   3.380610   2.265682   1.084425   2.040803
    11  H    3.380612   3.873752   3.420474   2.040803   1.084426
    12  H    2.040803   3.420473   3.873751   3.380611   2.265682
                    6          7          8          9         10
     6  C    0.000000
     7  H    2.040803   0.000000
     8  H    3.380612   2.604089   0.000000
     9  H    3.873751   4.295726   2.354088   0.000000
    10  H    3.420473   4.958177   4.295726   2.604088   0.000000
    11  H    2.265682   4.295727   4.958178   4.295726   2.354088
    12  H    1.084425   2.354088   4.295727   4.958177   4.295726
                   11         12
    11  H    0.000000
    12  H    2.604089   0.000000
 Stoichiometry    C6H6
 Framework group  D3H[SGH(C6H6)]
 Deg. of freedom     4
 Full point group                 D3H     NOp  12
 Largest Abelian subgroup         C2V     NOp   4
 Largest concise Abelian subgroup C2      NOp   2
                         Standard orientation:                         
 ---------------------------------------------------------------------
 Center     Atomic      Atomic             Coordinates (Angstroms)
 Number     Number       Type             X           Y           Z
 ---------------------------------------------------------------------
      1          6           0        0.634832    1.243898    0.000000
      2          6           0        1.394663   -0.072168    0.000000
      3          6           0        0.759831   -1.171730    0.000000
      4          6           0       -0.759831   -1.171730    0.000000
      5          6           0       -1.394663   -0.072168    0.000000
      6          6           0       -0.634832    1.243898    0.000000
      7          1           0        1.177044    2.183038    0.000000
      8          1           0        2.479088   -0.072169    0.000000
      9          1           0        1.302044   -2.110869    0.000000
     10          1           0       -1.302044   -2.110869    0.000000
     11          1           0       -2.479088   -0.072169    0.000000
     12          1           0       -1.177044    2.183038    0.000000
 ---------------------------------------------------------------------
 Rotational constants (GHZ):      5.6906769      5.6906769      2.8453385
 Leave Link  202 at Thu Dec  2 19:08:07 2021, MaxMem=  498073600 cpu:       0.0
 (Enter /apps/software//g09/l301.exe)
 Standard basis: 6-311++G(d,p) (5D, 7F)
 Ernie: Thresh=  0.10000D-02 Tol=  0.10000D-05 Strict=F.
 There are    66 symmetry adapted basis functions of A1  symmetry.
 There are    21 symmetry adapted basis functions of A2  symmetry.
 There are    66 symmetry adapted basis functions of B1  symmetry.
 There are    21 symmetry adapted basis functions of B2  symmetry.
 Integral buffers will be    131072 words long.
 Raffenetti 1 integral format.
 Two-electron integral symmetry is turned on.
   174 basis functions,   270 primitive gaussians,   180 cartesian basis functions
    21 alpha electrons       21 beta electrons
       nuclear repulsion energy       204.1404910873 Hartrees.
 IExCor=    0 DFT=F Ex=HF Corr=None ExCW=0 ScaHFX=  1.000000
 ScaDFX=  1.000000  1.000000  1.000000  1.000000 ScalE2=  1.000000  1.000000
 IRadAn=      0 IRanWt=     -1 IRanGd=            0 ICorTp=0
 NAtoms=   12 NActive=   12 NUniq=    2 SFac= 3.00D+00 NAtFMM=   80 NAOKFM=F Big=F
 Leave Link  301 at Thu Dec  2 19:08:07 2021, MaxMem=  498073600 cpu:       0.3
 (Enter /apps/software//g09/l302.exe)
 NPDir=0 NMtPBC=     1 NCelOv=     1 NCel=       1 NClECP=     1 NCelD=      1
         NCelK=      1 NCelE2=     1 NClLst=     1 CellRange=     0.0.
 One-electron integrals computed using PRISM.
 One-electron integral symmetry used in STVInt
 NBasis=   174 RedAO= T  NBF=    66    21    66    21
 NBsUse=   173 1.00D-06 NBFU=    66    21    65    21
 Leave Link  302 at Thu Dec  2 19:08:07 2021, MaxMem=  498073600 cpu:       1.4
 (Enter /apps/software//g09/l303.exe)
 DipDrv:  MaxL=1.
 Leave Link  303 at Thu Dec  2 19:08:08 2021, MaxMem=  498073600 cpu:       0.2
 (Enter /apps/software//g09/l401.exe)
 Harris functional with IExCor=  205 diagonalized for initial guess.
 ExpMin= 3.60D-02 ExpMax= 4.56D+03 ExpMxC= 6.82D+02 IAcc=3 IRadAn=         0 AccDes= 0.00D+00
 HarFok:  IExCor=  205 AccDes= 0.00D+00 IRadAn=         0 IDoV= 1
 ScaDFX=  1.000000  1.000000  1.000000  1.000000
 FoFCou: FMM=F IPFlag=           0 FMFlag=      100000 FMFlg1=           0
         NFxFlg=           0 DoJE=T BraDBF=F KetDBF=T FulRan=T
         Omega=  0.000000  0.000000  1.000000  0.000000  0.000000 ICntrl=     500 IOpCl=  0
         NMat0=    1 NMatS0=    1 NMatT0=    0 NMatD0=    1 NMtDS0=    0 NMtDT0=    0
         I1Cent=           4 NGrid=           0.
 Petite list used in FoFCou.
 Harris En= -231.130883027653    
 Initial guess orbital symmetries:
       Occupied  (A1') (E') (E') (E') (E') (A2') (A1') (E') (E')
                 (E') (E') (A1') (A1') (E') (E') (A2') (A2") (E')
                 (E') (E") (E")
       Virtual   (E") (E") (A1') (A1") (E') (E') (E') (E') (A1')
                 (A2") (E') (E') (A2') (A1') (E") (E") (A1') (E')
                 (E') (E') (E') (E') (E') (E") (E") (E') (E') (A2')
                 (A1") (A1') (E') (E') (E') (E') (A2') (E') (E')
                 (A2') (E') (E') (E') (E') (A2') (A1') (A1') (A2")
                 (E') (E') (E") (E") (A1') (A2') (E') (E') (E")
                 (E") (A1") (E') (E') (A2') (E') (E') (A1') (A2')
                 (E') (E') (A2") (A2') (E') (E') (E') (E') (A2")
                 (E") (E") (E') (E') (E") (E") (A1') (A2') (A1')
                 (E') (E') (E") (E") (A1') (E') (E') (A1") (E')
                 (E') (A2") (E") (E") (E') (E') (A1') (E') (E')
                 (E") (E") (A2') (A2') (E') (E') (E") (E") (A1")
                 (A1") (E') (E') (A1') (E') (E') (E') (E') (A2")
                 (A2') (A1') (E") (E") (A2') (E') (E') (E') (E')
                 (E") (E") (E') (E') (A2') (A1') (A1") (E') (E')
                 (A1') (E') (E') (A2') (E') (E') (A2') (E') (E')
                 (A2') (A1') (E') (E') (A2') (E') (E')
 The electronic state of the initial guess is 1-A1'.
 Leave Link  401 at Thu Dec  2 19:08:08 2021, MaxMem=  498073600 cpu:       2.3
 (Enter /apps/software//g09/l502.exe)
 Closed shell SCF:
 Requested convergence on RMS density matrix=1.00D-08 within 128 cycles.
 Requested convergence on MAX density matrix=1.00D-06.
 Requested convergence on             energy=1.00D-06.
 No special actions if energy rises.
 Using DIIS extrapolation, IDIIS=  1040.
 Integral symmetry usage will be decided dynamically.
 Keep R1 ints in memory in canonical form, NReq=135773659.
 IEnd=      118670 IEndB=      118670 NGot=   498073600 MDV=   365313928
 LenX=   365313928 LenY=   365281087
 Symmetry not used in FoFDir.
 MinBra= 0 MaxBra= 2 Meth= 1.
 IRaf=       0 NMat=   1 IRICut=       1 DoRegI=T DoRafI=F ISym2E= 0 JSym2E=0.

 Cycle   1  Pass 1  IDiag  1:
 E= -230.377687269109    
 DIIS: error= 6.36D-02 at cycle   1 NSaved=   1.
 NSaved= 1 IEnMin= 1 EnMin= -230.377687269109     IErMin= 1 ErrMin= 6.36D-02
 ErrMax= 6.36D-02 EMaxC= 1.00D-01 BMatC= 5.50D-01 BMatP= 5.50D-01
 IDIUse=3 WtCom= 3.64D-01 WtEn= 6.36D-01
 Coeff-Com:  0.100D+01
 Coeff-En:   0.100D+01
 Coeff:      0.100D+01
 Gap=     0.348 Goal=   None    Shift=    0.000
 GapD=    0.348 DampG=1.000 DampE=0.500 DampFc=0.5000 IDamp=-1.
 Damping current iteration by 5.00D-01
 RMSDP=4.03D-03 MaxDP=7.51D-02              OVMax= 1.59D-01

 Cycle   2  Pass 1  IDiag  1:
 E= -230.553750767336     Delta-E=       -0.176063498227 Rises=F Damp=T
 DIIS: error= 3.08D-02 at cycle   2 NSaved=   2.
 NSaved= 2 IEnMin= 2 EnMin= -230.553750767336     IErMin= 2 ErrMin= 3.08D-02
 ErrMax= 3.08D-02 EMaxC= 1.00D-01 BMatC= 1.15D-01 BMatP= 5.50D-01
 IDIUse=3 WtCom= 6.92D-01 WtEn= 3.08D-01
 Coeff-Com: -0.665D+00 0.167D+01
 Coeff-En:   0.000D+00 0.100D+01
 Coeff:     -0.461D+00 0.146D+01
 Gap=     0.406 Goal=   None    Shift=    0.000
 RMSDP=2.59D-03 MaxDP=6.64D-02 DE=-1.76D-01 OVMax= 5.12D-02

 Cycle   3  Pass 1  IDiag  1:
 E= -230.710620966604     Delta-E=       -0.156870199268 Rises=F Damp=F
 DIIS: error= 5.14D-03 at cycle   3 NSaved=   3.
 NSaved= 3 IEnMin= 3 EnMin= -230.710620966604     IErMin= 3 ErrMin= 5.14D-03
 ErrMax= 5.14D-03 EMaxC= 1.00D-01 BMatC= 1.26D-03 BMatP= 1.15D-01
 IDIUse=3 WtCom= 9.49D-01 WtEn= 5.14D-02
 Coeff-Com: -0.848D-01 0.133D+00 0.952D+00
 Coeff-En:   0.000D+00 0.000D+00 0.100D+01
 Coeff:     -0.804D-01 0.126D+00 0.954D+00
 Gap=     0.398 Goal=   None    Shift=    0.000
 RMSDP=4.25D-04 MaxDP=9.09D-03 DE=-1.57D-01 OVMax= 9.21D-03

 Cycle   4  Pass 1  IDiag  1:
 E= -230.711892965255     Delta-E=       -0.001271998651 Rises=F Damp=F
 DIIS: error= 1.07D-03 at cycle   4 NSaved=   4.
 NSaved= 4 IEnMin= 4 EnMin= -230.711892965255     IErMin= 4 ErrMin= 1.07D-03
 ErrMax= 1.07D-03 EMaxC= 1.00D-01 BMatC= 3.71D-05 BMatP= 1.26D-03
 IDIUse=3 WtCom= 9.89D-01 WtEn= 1.07D-02
 Coeff-Com:  0.761D-02-0.201D-01 0.264D-02 0.101D+01
 Coeff-En:   0.000D+00 0.000D+00 0.000D+00 0.100D+01
 Coeff:      0.753D-02-0.198D-01 0.261D-02 0.101D+01
 Gap=     0.398 Goal=   None    Shift=    0.000
 RMSDP=1.15D-04 MaxDP=2.14D-03 DE=-1.27D-03 OVMax= 2.79D-03

 Cycle   5  Pass 1  IDiag  1:
 E= -230.711973757528     Delta-E=       -0.000080792273 Rises=F Damp=F
 DIIS: error= 3.74D-04 at cycle   5 NSaved=   5.
 NSaved= 5 IEnMin= 5 EnMin= -230.711973757528     IErMin= 5 ErrMin= 3.74D-04
 ErrMax= 3.74D-04 EMaxC= 1.00D-01 BMatC= 3.74D-06 BMatP= 3.71D-05
 IDIUse=3 WtCom= 9.96D-01 WtEn= 3.74D-03
 Coeff-Com:  0.257D-02-0.247D-02-0.533D-01-0.248D+00 0.130D+01
 Coeff-En:   0.000D+00 0.000D+00 0.000D+00 0.000D+00 0.100D+01
 Coeff:      0.256D-02-0.246D-02-0.531D-01-0.247D+00 0.130D+01
 Gap=     0.398 Goal=   None    Shift=    0.000
 RMSDP=5.37D-05 MaxDP=8.30D-04 DE=-8.08D-05 OVMax= 2.14D-03

 Cycle   6  Pass 1  IDiag  1:
 E= -230.711988609475     Delta-E=       -0.000014851948 Rises=F Damp=F
 DIIS: error= 1.37D-04 at cycle   6 NSaved=   6.
 NSaved= 6 IEnMin= 6 EnMin= -230.711988609475     IErMin= 6 ErrMin= 1.37D-04
 ErrMax= 1.37D-04 EMaxC= 1.00D-01 BMatC= 2.37D-07 BMatP= 3.74D-06
 IDIUse=3 WtCom= 9.99D-01 WtEn= 1.37D-03
 Coeff-Com: -0.166D-02 0.219D-02 0.260D-01 0.746D-01-0.598D+00 0.150D+01
 Coeff-En:   0.000D+00 0.000D+00 0.000D+00 0.000D+00 0.000D+00 0.100D+01
 Coeff:     -0.165D-02 0.219D-02 0.259D-01 0.745D-01-0.597D+00 0.150D+01
 Gap=     0.398 Goal=   None    Shift=    0.000
 RMSDP=1.18D-05 MaxDP=1.97D-04 DE=-1.49D-05 OVMax= 9.33D-04

 Cycle   7  Pass 1  IDiag  1:
 E= -230.711990155881     Delta-E=       -0.000001546405 Rises=F Damp=F
 DIIS: error= 3.94D-05 at cycle   7 NSaved=   7.
 NSaved= 7 IEnMin= 7 EnMin= -230.711990155881     IErMin= 7 ErrMin= 3.94D-05
 ErrMax= 3.94D-05 EMaxC= 1.00D-01 BMatC= 2.00D-08 BMatP= 2.37D-07
 IDIUse=1 WtCom= 1.00D+00 WtEn= 0.00D+00
 Coeff-Com:  0.208D-04-0.341D-04-0.140D-02 0.176D-02 0.371D-01-0.437D+00
 Coeff-Com:  0.140D+01
 Coeff:      0.208D-04-0.341D-04-0.140D-02 0.176D-02 0.371D-01-0.437D+00
 Coeff:      0.140D+01
 Gap=     0.398 Goal=   None    Shift=    0.000
 RMSDP=3.74D-06 MaxDP=6.99D-05 DE=-1.55D-06 OVMax= 3.30D-04

 Cycle   8  Pass 1  IDiag  1:
 E= -230.711990289890     Delta-E=       -0.000000134009 Rises=F Damp=F
 DIIS: error= 3.72D-06 at cycle   8 NSaved=   8.
 NSaved= 8 IEnMin= 8 EnMin= -230.711990289890     IErMin= 8 ErrMin= 3.72D-06
 ErrMax= 3.72D-06 EMaxC= 1.00D-01 BMatC= 4.05D-10 BMatP= 2.00D-08
 IDIUse=1 WtCom= 1.00D+00 WtEn= 0.00D+00
 Coeff-Com:  0.587D-04-0.770D-04-0.924D-03-0.360D-02 0.229D-01-0.275D-01
 Coeff-Com: -0.134D+00 0.114D+01
 Coeff:      0.587D-04-0.770D-04-0.924D-03-0.360D-02 0.229D-01-0.275D-01
 Coeff:     -0.134D+00 0.114D+01
 Gap=     0.398 Goal=   None    Shift=    0.000
 RMSDP=7.61D-07 MaxDP=1.00D-05 DE=-1.34D-07 OVMax= 3.45D-05

 Cycle   9  Pass 1  IDiag  1:
 E= -230.711990291615     Delta-E=       -0.000000001725 Rises=F Damp=F
 DIIS: error= 2.83D-07 at cycle   9 NSaved=   9.
 NSaved= 9 IEnMin= 9 EnMin= -230.711990291615     IErMin= 9 ErrMin= 2.83D-07
 ErrMax= 2.83D-07 EMaxC= 1.00D-01 BMatC= 8.33D-12 BMatP= 4.05D-10
 IDIUse=1 WtCom= 1.00D+00 WtEn= 0.00D+00
 Coeff-Com: -0.988D-05 0.130D-04 0.203D-03 0.595D-03-0.495D-02 0.162D-01
 Coeff-Com: -0.864D-02-0.224D+00 0.122D+01
 Coeff:     -0.988D-05 0.130D-04 0.203D-03 0.595D-03-0.495D-02 0.162D-01
 Coeff:     -0.864D-02-0.224D+00 0.122D+01
 Gap=     0.398 Goal=   None    Shift=    0.000
 RMSDP=1.38D-07 MaxDP=1.74D-06 DE=-1.72D-09 OVMax= 1.61D-06

 Cycle  10  Pass 1  IDiag  1:
 E= -230.711990291637     Delta-E=       -0.000000000023 Rises=F Damp=F
 DIIS: error= 7.43D-08 at cycle  10 NSaved=  10.
 NSaved=10 IEnMin=10 EnMin= -230.711990291637     IErMin=10 ErrMin= 7.43D-08
 ErrMax= 7.43D-08 EMaxC= 1.00D-01 BMatC= 2.08D-13 BMatP= 8.33D-12
 IDIUse=1 WtCom= 1.00D+00 WtEn= 0.00D+00
 Coeff-Com:  0.241D-05-0.311D-05-0.542D-04-0.150D-03 0.129D-02-0.489D-02
 Coeff-Com:  0.461D-02 0.560D-01-0.403D+00 0.135D+01
 Coeff:      0.241D-05-0.311D-05-0.542D-04-0.150D-03 0.129D-02-0.489D-02
 Coeff:      0.461D-02 0.560D-01-0.403D+00 0.135D+01
 Gap=     0.398 Goal=   None    Shift=    0.000
 RMSDP=1.21D-08 MaxDP=1.30D-07 DE=-2.26D-11 OVMax= 2.77D-07

 Cycle  11  Pass 1  IDiag  1:
 E= -230.711990291637     Delta-E=        0.000000000000 Rises=F Damp=F
 DIIS: error= 1.15D-08 at cycle  11 NSaved=  11.
 NSaved=11 IEnMin=10 EnMin= -230.711990291637     IErMin=11 ErrMin= 1.15D-08
 ErrMax= 1.15D-08 EMaxC= 1.00D-01 BMatC= 5.30D-15 BMatP= 2.08D-13
 IDIUse=1 WtCom= 1.00D+00 WtEn= 0.00D+00
 Coeff-Com: -0.435D-06 0.504D-06 0.120D-04 0.310D-04-0.273D-03 0.111D-02
 Coeff-Com: -0.122D-02-0.120D-01 0.957D-01-0.428D+00 0.134D+01
 Coeff:     -0.435D-06 0.504D-06 0.120D-04 0.310D-04-0.273D-03 0.111D-02
 Coeff:     -0.122D-02-0.120D-01 0.957D-01-0.428D+00 0.134D+01
 Gap=     0.398 Goal=   None    Shift=    0.000
 RMSDP=3.87D-09 MaxDP=5.59D-08 DE= 5.68D-14 OVMax= 4.23D-08

 SCF Done:  E(RHF) =  -230.711990292     A.U. after   11 cycles
             Convg  =    0.3866D-08             -V/T =  1.9992
 KE= 2.308877278249D+02 PE=-9.455166500896D+02 EE= 2.797764408858D+02
 Leave Link  502 at Thu Dec  2 19:08:14 2021, MaxMem=  498073600 cpu:      33.4
 (Enter /apps/software//g09/l801.exe)
 ExpMin= 3.60D-02 ExpMax= 4.56D+03 ExpMxC= 6.82D+02 IAcc=3 IRadAn=         5 AccDes= 0.00D+00
 HarFok:  IExCor=  205 AccDes= 0.00D+00 IRadAn=         5 IDoV=-2
 ScaDFX=  1.000000  1.000000  1.000000  1.000000
 Largest valence mixing into a core orbital is  1.47D-04
 Largest core mixing into a valence orbital is  3.97D-05
 Range of M.O.s used for correlation:     7   173
 NBasis=   174 NAE=    21 NBE=    21 NFC=     6 NFV=     0
 NROrb=    167 NOA=    15 NOB=    15 NVA=   152 NVB=   152

 **** Warning!!: The largest alpha MO coefficient is  0.91194514D+02

 Leave Link  801 at Thu Dec  2 19:08:14 2021, MaxMem=  498073600 cpu:       1.3
 (Enter /apps/software//g09/l906.exe)
 Frozen-core derivative calculation, NFC=   6 NFV=   0.
 FulOut=F Deriv=T AODrv=F NAtomX=    12
   MMem=         328  MDisk=          15 MDiskD=          15
  W3Min=      653940 MinDsk=     1009670 NBas6D=         180
 NBas2D=       16542    NTT=       16290    LW2=     2040000
    MDV=   497689350 MDiskM=       38247 NBas2p=        8395
 Fully in-core method, ICMem=   280915704.
 IMap=   1   2   3   4   5   6   7   8   9  10  11  12  13  14  15  16  17  18  19  20
 IMap=  21
 JobTyp=1 Pass  1 fully in-core, NPsUse=  6.
 Compute canonical integrals, IntTyp=   4.
 Symmetry not used in FoFDir.
 MinBra= 0 MaxBra= 2 Meth= 1.
 IRaf=       0 NMat=   1 IRICut=       1 DoRegI=T DoRafI=F ISym2E= 0 JSym2E=0.
 Spin components of T(2) and E(2):
     alpha-alpha T2 =       0.3891542821D-01 E2=     -0.1039000104D+00
     alpha-beta  T2 =       0.2152814442D+00 E2=     -0.6067276281D+00
     beta-beta   T2 =       0.3891542821D-01 E2=     -0.1039000104D+00
 The integrals were generated   1 times.
 ANorm=    0.1137150958D+01
 E2 =    -0.8145276490D+00 EUMP2 =    -0.23152651794066D+03
 Leave Link  906 at Thu Dec  2 19:09:00 2021, MaxMem=  498073600 cpu:     273.9
 (Enter /apps/software//g09/l1002.exe)
 Minotr:  Closed shell wavefunction.
          Computing MP2/KS-MP2 derivatives.
          Using Z-Vector for PSCF gradient.
          Skipping F1 and S1 gradient terms here.
          Frozen-core window.
          Direct CPHF calculation.
          Differentiating once with respect to electric field.
                with respect to dipole field.
          Electric field/nuclear overlap derivatives assumed to be zero.
          Using symmetry in CPHF.
          Requested convergence is 1.0D-10 RMS, and 1.0D-09 maximum.
          NewPWx=F KeepS1=T KeepF1=T KeepIn=T MapXYZ=F SortEE=F KeepMc=T.
          MDV=     498073500 using IRadAn=       0.
          Keep R1 ints in memory in canonical form, NReq=133512725.
 Symmetry not used in FoFDir.
 MinBra= 0 MaxBra= 2 Meth= 1.
 IRaf=       0 NMat=   1 IRICut=       1 DoRegI=T DoRafI=F ISym2E= 0 JSym2E=0.
          Solving linear equations separately, MaxMat=       0.
          There are     1 degrees of freedom in the 1st order CPHF.  IDoFFX=0.
 LinEq1:  Iter=  0 NonCon=     1 RMS=3.59D-03 Max=5.89D-02
 AX will form     1 AO Fock derivatives at one time.
 LinEq1:  Iter=  1 NonCon=     1 RMS=9.17D-04 Max=1.66D-02
 LinEq1:  Iter=  2 NonCon=     1 RMS=3.64D-04 Max=6.41D-03
 LinEq1:  Iter=  3 NonCon=     1 RMS=8.79D-05 Max=1.27D-03
 LinEq1:  Iter=  4 NonCon=     1 RMS=1.67D-05 Max=2.40D-04
 LinEq1:  Iter=  5 NonCon=     1 RMS=1.98D-06 Max=3.78D-05
 LinEq1:  Iter=  6 NonCon=     1 RMS=2.82D-07 Max=2.98D-06
 LinEq1:  Iter=  7 NonCon=     1 RMS=5.22D-08 Max=7.12D-07
 LinEq1:  Iter=  8 NonCon=     1 RMS=5.58D-09 Max=9.89D-08
 LinEq1:  Iter=  9 NonCon=     1 RMS=4.77D-10 Max=5.27D-09
 LinEq1:  Iter= 10 NonCon=     0 RMS=3.87D-11 Max=5.26D-10
 Linear equations converged to 1.000D-10 1.000D-09 after    10 iterations.
 End of Minotr Frequency-dependent properties file   721 does not exist.
 End of Minotr Frequency-dependent properties file   722 does not exist.
 Leave Link 1002 at Thu Dec  2 19:09:08 2021, MaxMem=  498073600 cpu:      50.6
 (Enter /apps/software//g09/l601.exe)
 Copying SCF densities to generalized density rwf, IOpCl= 0 IROHF=0.

 **********************************************************************

            Population analysis using the MP2 density.

 **********************************************************************

 Orbital symmetries:
       Occupied  (A1') (E') (E') (E') (E') (A2') (A1') (E') (E')
                 (E') (E') (A1') (A2') (A1') (E') (E') (A2") (E')
                 (E') (E") (E")
       Virtual   (A1') (E') (E') (E') (E') (A2') (E") (E") (A2")
                 (E") (E") (A1') (A1') (E') (E') (E') (E') (A1')
                 (A1") (E') (E') (E") (E") (E') (E') (A2') (E')
                 (E') (E') (E') (A2') (A1') (A1") (E') (E') (A2')
                 (E') (E') (E') (E') (E') (E') (A1') (A1') (A2')
                 (A2") (E') (E') (E") (E") (E') (E') (A2') (A1')
                 (E") (E") (A2') (A1") (E') (E') (A1') (E') (E')
                 (E') (E') (A2') (E') (E') (E') (E') (A2") (A2')
                 (E') (E') (A2") (E") (E") (E") (E") (A2') (A1')
                 (A1') (E') (E') (A1") (E") (E") (A1') (E') (E')
                 (E') (E') (A2") (E") (E") (E') (E') (A1') (E')
                 (E') (A2') (E") (E") (A2') (E") (E") (E') (E')
                 (A1") (A1") (E') (E') (A1') (E') (E') (E') (E')
                 (A2') (A1') (E') (E') (A2') (E') (E') (A2") (E")
                 (E") (A2') (E") (E") (E') (E') (A1') (A1") (E')
                 (E') (A1') (E') (E') (A2') (E') (E') (A2') (E')
                 (E') (A2') (A1') (E') (E') (A2') (E') (E')
 The electronic state is 1-A1'.
 Alpha  occ. eigenvalues --  -11.23028 -11.22985 -11.22985 -11.22768 -11.22768
 Alpha  occ. eigenvalues --  -11.22721  -1.15489  -1.03038  -1.03038  -0.80911
 Alpha  occ. eigenvalues --   -0.80911  -0.71025  -0.63923  -0.61663  -0.59871
 Alpha  occ. eigenvalues --   -0.59871  -0.50394  -0.47648  -0.47648  -0.35558
 Alpha  occ. eigenvalues --   -0.35558
 Alpha virt. eigenvalues --    0.04246   0.04911   0.04911   0.06647   0.06647
 Alpha virt. eigenvalues --    0.09730   0.11853   0.11853   0.12830   0.15459
 Alpha virt. eigenvalues --    0.15459   0.15843   0.16297   0.18111   0.18111
 Alpha virt. eigenvalues --    0.18378   0.18378   0.19323   0.20953   0.21271
 Alpha virt. eigenvalues --    0.21271   0.22426   0.22426   0.22855   0.22855
 Alpha virt. eigenvalues --    0.24391   0.25041   0.25041   0.28880   0.28880
 Alpha virt. eigenvalues --    0.30806   0.33486   0.37451   0.39059   0.39059
 Alpha virt. eigenvalues --    0.41201   0.42569   0.42569   0.48486   0.48486
 Alpha virt. eigenvalues --    0.53304   0.53304   0.58804   0.62594   0.67685
 Alpha virt. eigenvalues --    0.70539   0.70616   0.70616   0.75019   0.75019
 Alpha virt. eigenvalues --    0.77058   0.77058   0.78916   0.80456   0.83085
 Alpha virt. eigenvalues --    0.83085   0.88165   0.89191   0.89619   0.89619
 Alpha virt. eigenvalues --    0.97653   1.01209   1.01209   1.02588   1.02588
 Alpha virt. eigenvalues --    1.06123   1.06411   1.06411   1.13888   1.13888
 Alpha virt. eigenvalues --    1.15367   1.22020   1.22309   1.22309   1.29311
 Alpha virt. eigenvalues --    1.32058   1.32058   1.41149   1.41149   1.50530
 Alpha virt. eigenvalues --    1.54022   1.67045   1.78794   1.78794   1.82584
 Alpha virt. eigenvalues --    1.83547   1.83547   1.85248   1.86566   1.86566
 Alpha virt. eigenvalues --    1.97175   1.97175   1.99699   2.06292   2.06292
 Alpha virt. eigenvalues --    2.11888   2.11888   2.13730   2.22833   2.22833
 Alpha virt. eigenvalues --    2.24071   2.24568   2.24568   2.31057   2.40352
 Alpha virt. eigenvalues --    2.40352   2.41246   2.41246   2.64668   2.67069
 Alpha virt. eigenvalues --    2.72755   2.72755   2.75445   2.83077   2.83077
 Alpha virt. eigenvalues --    2.95483   2.95483   2.97901   2.98328   3.01058
 Alpha virt. eigenvalues --    3.01058   3.03452   3.06227   3.06227   3.07063
 Alpha virt. eigenvalues --    3.19368   3.19368   3.29828   3.30161   3.30161
 Alpha virt. eigenvalues --    3.32489   3.32489   3.45558   3.48172   3.65840
 Alpha virt. eigenvalues --    3.65840   4.03133   4.05742   4.05742   4.07424
 Alpha virt. eigenvalues --    4.37832   4.37832   4.47149   4.52699   4.52699
 Alpha virt. eigenvalues --    5.14383  24.72651  24.87828  24.87828  25.66938
 Alpha virt. eigenvalues --   25.70346  25.70346
          Condensed to atoms (all electrons):
              1          2          3          4          5          6
     1  C    5.774720   0.178527  -0.320815   0.472258  -0.320815   0.105548
     2  C    0.178527   5.774720   0.105548  -0.320815   0.472258  -0.320815
     3  C   -0.320815   0.105548   5.774720   0.178527  -0.320815   0.472258
     4  C    0.472258  -0.320815   0.178527   5.774720   0.105548  -0.320815
     5  C   -0.320815   0.472258  -0.320815   0.105548   5.774720   0.178527
     6  C    0.105548  -0.320815   0.472258  -0.320815   0.178527   5.774720
     7  H    0.440994  -0.066974  -0.015148   0.041020  -0.015634  -0.101716
     8  H   -0.066974   0.440994  -0.101716  -0.015634   0.041020  -0.015148
     9  H   -0.015634  -0.101716   0.440994  -0.066974  -0.015148   0.041020
    10  H    0.041020  -0.015148  -0.066974   0.440994  -0.101716  -0.015634
    11  H   -0.015148   0.041020  -0.015634  -0.101716   0.440994  -0.066974
    12  H   -0.101716  -0.015634   0.041020  -0.015148  -0.066974   0.440994
              7          8          9         10         11         12
     1  C    0.440994  -0.066974  -0.015634   0.041020  -0.015148  -0.101716
     2  C   -0.066974   0.440994  -0.101716  -0.015148   0.041020  -0.015634
     3  C   -0.015148  -0.101716   0.440994  -0.066974  -0.015634   0.041020
     4  C    0.041020  -0.015634  -0.066974   0.440994  -0.101716  -0.015148
     5  C   -0.015634   0.041020  -0.015148  -0.101716   0.440994  -0.066974
     6  C   -0.101716  -0.015148   0.041020  -0.015634  -0.066974   0.440994
     7  H    0.567819  -0.002563  -0.002000   0.002051  -0.002000  -0.017814
     8  H   -0.002563   0.567819  -0.017814  -0.002000   0.002051  -0.002000
     9  H   -0.002000  -0.017814   0.567819  -0.002563  -0.002000   0.002051
    10  H    0.002051  -0.002000  -0.002563   0.567819  -0.017814  -0.002000
    11  H   -0.002000   0.002051  -0.002000  -0.017814   0.567819  -0.002563
    12  H   -0.017814  -0.002000   0.002051  -0.002000  -0.002563   0.567819
 Mulliken atomic charges:
              1
     1  C   -0.171964
     2  C   -0.171964
     3  C   -0.171964
     4  C   -0.171964
     5  C   -0.171964
     6  C   -0.171964
     7  H    0.171964
     8  H    0.171964
     9  H    0.171964
    10  H    0.171964
    11  H    0.171964
    12  H    0.171964
 Sum of Mulliken atomic charges =   0.00000
 Mulliken charges with hydrogens summed into heavy atoms:
              1
     1  C    0.000000
     2  C    0.000000
     3  C    0.000000
     4  C    0.000000
     5  C    0.000000
     6  C    0.000000
 Sum of Mulliken charges with hydrogens summed into heavy atoms =   0.00000
 Electronic spatial extent (au):  <R**2>=            460.8402
 Charge=              0.0000 electrons
 Dipole moment (field-independent basis, Debye):
    X=              0.0000    Y=              0.0000    Z=              0.0000  Tot=              0.0000
 Quadrupole moment (field-independent basis, Debye-Ang):
   XX=            -32.4572   YY=            -32.4572   ZZ=            -40.4261
   XY=              0.0000   XZ=              0.0000   YZ=              0.0000
 Traceless Quadrupole moment (field-independent basis, Debye-Ang):
   XX=              2.6563   YY=              2.6563   ZZ=             -5.3126
   XY=              0.0000   XZ=              0.0000   YZ=              0.0000
 Octapole moment (field-independent basis, Debye-Ang**2):
  XXX=              0.0000  YYY=              0.6001  ZZZ=              0.0000  XYY=              0.0000
  XXY=             -0.6001  XXZ=              0.0000  XZZ=              0.0000  YZZ=              0.0000
  YYZ=              0.0000  XYZ=              0.0000
 Hexadecapole moment (field-independent basis, Debye-Ang**3):
 XXXX=           -279.4579 YYYY=           -279.4579 ZZZZ=            -49.8579 XXXY=              0.0000
 XXXZ=              0.0000 YYYX=              0.0000 YYYZ=              0.0000 ZZZX=              0.0000
 ZZZY=              0.0000 XXYY=            -93.1526 XXZZ=            -65.5926 YYZZ=            -65.5926
 XXYZ=              0.0000 YYXZ=              0.0000 ZZXY=              0.0000
 N-N= 2.041404910873D+02 E-N=-9.462370680150D+02  KE= 2.318511768238D+02
 Symmetry A1   KE= 1.151762347972D+02
 Symmetry A2   KE= 2.377185630506D+00
 Symmetry B1   KE= 1.101602641664D+02
 Symmetry B2   KE= 4.137492229639D+00
 No NMR shielding tensors so no spin-rotation constants.
 Leave Link  601 at Thu Dec  2 19:09:09 2021, MaxMem=  498073600 cpu:       1.7
 (Enter /apps/software//g09/l9999.exe)
 1\1\GINC-DLT06\SP\RMP2-FC\6-311++G(d,p)\C6H6\ITAMAR\02-Dec-2021\0\\#P 
 MP2/6-311++G** Density=MP2\\Bla-0.25\\0,1\C,0,0.634832,1.243898,0.\C,0
 ,1.394663,-0.072169,0.\C,0,0.759832,-1.171729,0.\C,0,-0.759832,-1.1717
 29,0.\C,0,-1.394663,-0.072169,0.\C,0,-0.634832,1.243898,0.\H,0,1.17704
 4,2.183038,0.\H,0,2.479089,-0.072169,0.\H,0,1.302044,-2.110869,0.\H,0,
 -1.302044,-2.110869,0.\H,0,-2.479089,-0.072169,0.\H,0,-1.177044,2.1830
 38,0.\\Version=EM64L-G09RevA.02\State=1-A1'\HF=-230.7119903\MP2=-231.5
 265179\RMSD=3.866e-09\Dipole=0.,0.,0.\Quadrupole=1.974882,1.974882,-3.
 9497641,0.,0.,0.\PG=D03H [SGH(C6H6)]\\@


 ALL MEN WHO EXPLORE
 DEPLORE
 THAT FRUSTRATING HURDLE
 THE GIRDLE.

         -- COLIN FLETCHER
 Job cpu time:  0 days  0 hours  6 minutes  6.9 seconds.
 File lengths (MBytes):  RWF=     14 Int=      0 D2E=      0 Chk=      4 Scr=      1
 Normal termination of Gaussian 09 at Thu Dec  2 19:09:09 2021.
