 Entering Gaussian System, Link 0=g16
 Initial command:
 /sw/cluster/pub/apps//g16/l1.exe "/data/mmaximo/31374/Gau-50988.inp" -scrdir="/data/mmaximo/31374/"
 Entering Link 1 = /sw/cluster/pub/apps//g16/l1.exe PID=     50989.
  
 Copyright (c) 1988,1990,1992,1993,1995,1998,2003,2009,2016,
            Gaussian, Inc.  All Rights Reserved.
  
 This is part of the Gaussian(R) 16 program.  It is based on
 the Gaussian(R) 09 system (copyright 2009, Gaussian, Inc.),
 the Gaussian(R) 03 system (copyright 2003, Gaussian, Inc.),
 the Gaussian(R) 98 system (copyright 1998, Gaussian, Inc.),
 the Gaussian(R) 94 system (copyright 1995, Gaussian, Inc.),
 the Gaussian 92(TM) system (copyright 1992, Gaussian, Inc.),
 the Gaussian 90(TM) system (copyright 1990, Gaussian, Inc.),
 the Gaussian 88(TM) system (copyright 1988, Gaussian, Inc.),
 the Gaussian 86(TM) system (copyright 1986, Carnegie Mellon
 University), and the Gaussian 82(TM) system (copyright 1983,
 Carnegie Mellon University). Gaussian is a federally registered
 trademark of Gaussian, Inc.
  
 This software contains proprietary and confidential information,
 including trade secrets, belonging to Gaussian, Inc.
  
 This software is provided under written license and may be
 used, copied, transmitted, or stored only in accord with that
 written license.
  
 The following legend is applicable only to US Government
 contracts under FAR:
  
                    RESTRICTED RIGHTS LEGEND
  
 Use, reproduction and disclosure by the US Government is
 subject to restrictions as set forth in subparagraphs (a)
 and (c) of the Commercial Computer Software - Restricted
 Rights clause in FAR 52.227-19.
  
 Gaussian, Inc.
 340 Quinnipiac St., Bldg. 40, Wallingford CT 06492
  
  
 ---------------------------------------------------------------
 Warning -- This program may not be used in any manner that
 competes with the business of Gaussian, Inc. or will provide
 assistance to any competitor of Gaussian, Inc.  The licensee
 of this program is prohibited from giving any competitor of
 Gaussian, Inc. access to this program.  By using this program,
 the user acknowledges that Gaussian, Inc. is engaged in the
 business of creating and licensing software in the field of
 computational chemistry and represents and warrants to the
 licensee that it is not a competitor of Gaussian, Inc. and that
 it will not use this program in any manner prohibited above.
 ---------------------------------------------------------------
  

 Cite this work as:
 Gaussian 16, Revision A.03,
 M. J. Frisch, G. W. Trucks, H. B. Schlegel, G. E. Scuseria, 
 M. A. Robb, J. R. Cheeseman, G. Scalmani, V. Barone, 
 G. A. Petersson, H. Nakatsuji, X. Li, M. Caricato, A. V. Marenich, 
 J. Bloino, B. G. Janesko, R. Gomperts, B. Mennucci, H. P. Hratchian, 
 J. V. Ortiz, A. F. Izmaylov, J. L. Sonnenberg, D. Williams-Young, 
 F. Ding, F. Lipparini, F. Egidi, J. Goings, B. Peng, A. Petrone, 
 T. Henderson, D. Ranasinghe, V. G. Zakrzewski, J. Gao, N. Rega, 
 G. Zheng, W. Liang, M. Hada, M. Ehara, K. Toyota, R. Fukuda, 
 J. Hasegawa, M. Ishida, T. Nakajima, Y. Honda, O. Kitao, H. Nakai, 
 T. Vreven, K. Throssell, J. A. Montgomery, Jr., J. E. Peralta, 
 F. Ogliaro, M. J. Bearpark, J. J. Heyd, E. N. Brothers, K. N. Kudin, 
 V. N. Staroverov, T. A. Keith, R. Kobayashi, J. Normand, 
 K. Raghavachari, A. P. Rendell, J. C. Burant, S. S. Iyengar, 
 J. Tomasi, M. Cossi, J. M. Millam, M. Klene, C. Adamo, R. Cammi, 
 J. W. Ochterski, R. L. Martin, K. Morokuma, O. Farkas, 
 J. B. Foresman, and D. J. Fox, Gaussian, Inc., Wallingford CT, 2016.
 
 ******************************************
 Gaussian 16:  ES64L-G16RevA.03 25-Dec-2016
                13-Feb-2025 
 ******************************************
 %chk=Penta-O.chk
 ------------------------------------
 #P MP2/6-311++G** nosymm Density=MP2
 ------------------------------------
 1/30=1,38=1,172=1/1;
 2/12=2,15=1,17=6,18=5,40=1/2;
 3/5=4,6=6,7=1111,11=9,25=1,30=1,71=1/1,2,3;
 4//1;
 5/5=2,38=5/2;
 8/6=4,10=2/1;
 9/15=1,16=-3/6;
 10/5=1,13=10,31=1/2;
 6/7=2,8=2,9=2,10=2,22=2/1;
 99/5=1,9=1/99;
 Leave Link    1 at Thu Feb 13 10:03:33 2025, MaxMem=           0 cpu:               0.0 elap:               0.0
 (Enter /sw/cluster/pub/apps//g16/l101.exe)
 -------
 Penta-O
 -------
 Symbolic Z-matrix:
 Charge =  0 Multiplicity = 1
 C                     0.        0.82305   0. 
 C                     1.20465  -0.0885    0. 
 H                     2.22351   0.26813   0. 
 C                     0.75157  -1.3468    0. 
 H                     1.34619  -2.25065   0. 
 C                    -1.20465  -0.0885    0. 
 H                    -2.22351   0.26813   0. 
 C                    -0.75157  -1.3468    0. 
 H                    -1.34619  -2.25065   0. 
 O                     0.        2.0313    0. 
 
 ITRead=  0  0  0  0  0  0  0  0  0  0
 MicOpt= -1 -1 -1 -1 -1 -1 -1 -1 -1 -1
 NAtoms=     10 NQM=       10 NQMF=       0 NMMI=      0 NMMIF=      0
                NMic=       0 NMicF=      0.
                    Isotopes and Nuclear Properties:
 (Nuclear quadrupole moments (NQMom) in fm**2, nuclear magnetic moments (NMagM)
  in nuclear magnetons)

  Atom         1           2           3           4           5           6           7           8           9          10
 IAtWgt=          12          12           1          12           1          12           1          12           1          16
 AtmWgt=  12.0000000  12.0000000   1.0078250  12.0000000   1.0078250  12.0000000   1.0078250  12.0000000   1.0078250  15.9949146
 NucSpn=           0           0           1           0           1           0           1           0           1           0
 AtZEff=  -0.0000000  -0.0000000  -0.0000000  -0.0000000  -0.0000000  -0.0000000  -0.0000000  -0.0000000  -0.0000000  -0.0000000
 NQMom=    0.0000000   0.0000000   0.0000000   0.0000000   0.0000000   0.0000000   0.0000000   0.0000000   0.0000000   0.0000000
 NMagM=    0.0000000   0.0000000   2.7928460   0.0000000   2.7928460   0.0000000   2.7928460   0.0000000   2.7928460   0.0000000
 AtZNuc=   6.0000000   6.0000000   1.0000000   6.0000000   1.0000000   6.0000000   1.0000000   6.0000000   1.0000000   8.0000000
 Leave Link  101 at Thu Feb 13 10:03:33 2025, MaxMem=   104857600 cpu:               0.0 elap:               0.0
 (Enter /sw/cluster/pub/apps//g16/l202.exe)
                          Input orientation:                          
 ---------------------------------------------------------------------
 Center     Atomic      Atomic             Coordinates (Angstroms)
 Number     Number       Type             X           Y           Z
 ---------------------------------------------------------------------
      1          6           0        0.000000    0.823052    0.000000
      2          6           0        1.204646   -0.088504    0.000000
      3          1           0        2.223506    0.268126    0.000000
      4          6           0        0.751566   -1.346802    0.000000
      5          1           0        1.346186   -2.250654    0.000000
      6          6           0       -1.204646   -0.088504    0.000000
      7          1           0       -2.223506    0.268126    0.000000
      8          6           0       -0.751566   -1.346802    0.000000
      9          1           0       -1.346186   -2.250654    0.000000
     10          8           0        0.000000    2.031302    0.000000
 ---------------------------------------------------------------------
                    Distance matrix (angstroms):
                    1          2          3          4          5
     1  C    0.000000
     2  C    1.510664   0.000000
     3  H    2.291707   1.079472   0.000000
     4  C    2.296327   1.337384   2.185086   0.000000
     5  H    3.355576   2.166778   2.667198   1.081906   0.000000
     6  C    1.510664   2.409292   3.446652   2.325958   3.343896
     7  H    2.291707   3.446652   4.447012   3.385122   4.368862
     8  C    2.296327   2.325958   3.385122   1.503132   2.284188
     9  H    3.355576   3.343896   4.368862   2.284188   2.692372
    10  O    1.208250   2.438186   2.837740   3.460699   4.488582
                    6          7          8          9         10
     6  C    0.000000
     7  H    1.079472   0.000000
     8  C    1.337384   2.185086   0.000000
     9  H    2.166778   2.667198   1.081906   0.000000
    10  O    2.438186   2.837740   3.460699   4.488582   0.000000
 Symmetry turned off by external request.
 Stoichiometry    C5H4O
 Framework group  C2V[C2(CO),SGV(C4H4)]
 Deg. of freedom     9
 Full point group                 C2V     NOp   4
 Rotational constants (GHZ):           8.1509196           3.9479431           2.6597018
 Leave Link  202 at Thu Feb 13 10:03:33 2025, MaxMem=   104857600 cpu:               0.0 elap:               0.0
 (Enter /sw/cluster/pub/apps//g16/l301.exe)
 Standard basis: 6-311++G(d,p) (5D, 7F)
 Ernie: Thresh=  0.10000D-02 Tol=  0.10000D-05 Strict=F.
   160 basis functions,   252 primitive gaussians,   166 cartesian basis functions
    21 alpha electrons       21 beta electrons
       nuclear repulsion energy       200.2753510805 Hartrees.
 IExCor=    0 DFT=F Ex=HF Corr=None ExCW=0 ScaHFX=  1.000000
 ScaDFX=  1.000000  1.000000  1.000000  1.000000 ScalE2=  1.000000  1.000000
 IRadAn=      5 IRanWt=     -1 IRanGd=            0 ICorTp=0 IEmpDi=  4
 NAtoms=   10 NActive=   10 NUniq=   10 SFac= 1.00D+00 NAtFMM=   60 NAOKFM=F Big=F
 Integral buffers will be    131072 words long.
 Raffenetti 1 integral format.
 Two-electron integral symmetry is turned off.
 Leave Link  301 at Thu Feb 13 10:03:33 2025, MaxMem=   104857600 cpu:               0.0 elap:               0.0
 (Enter /sw/cluster/pub/apps//g16/l302.exe)
 NPDir=0 NMtPBC=     1 NCelOv=     1 NCel=       1 NClECP=     1 NCelD=      1
         NCelK=      1 NCelE2=     1 NClLst=     1 CellRange=     0.0.
 One-electron integrals computed using PRISM.
 NBasis=   160 RedAO= T EigKep=  7.62D-06  NBF=   160
 NBsUse=   160 1.00D-06 EigRej= -1.00D+00 NBFU=   160
 Leave Link  302 at Thu Feb 13 10:03:33 2025, MaxMem=   104857600 cpu:               0.0 elap:               0.0
 (Enter /sw/cluster/pub/apps//g16/l303.exe)
 DipDrv:  MaxL=1.
 Leave Link  303 at Thu Feb 13 10:03:33 2025, MaxMem=   104857600 cpu:               0.0 elap:               0.0
 (Enter /sw/cluster/pub/apps//g16/l401.exe)
 ExpMin= 3.60D-02 ExpMax= 8.59D+03 ExpMxC= 1.30D+03 IAcc=3 IRadAn=         5 AccDes= 0.00D+00
 Harris functional with IExCor=  205 and IRadAn=       5 diagonalized for initial guess.
 HarFok:  IExCor=  205 AccDes= 0.00D+00 IRadAn=         5 IDoV= 1 UseB2=F ITyADJ=14
 ICtDFT=  3500011 ScaDFX=  1.000000  1.000000  1.000000  1.000000
 FoFCou: FMM=F IPFlag=           0 FMFlag=      100000 FMFlg1=           0
         NFxFlg=           0 DoJE=T BraDBF=F KetDBF=T FulRan=T
         wScrn=  0.000000 ICntrl=       500 IOpCl=  0 I1Cent=   200000004 NGrid=           0
         NMat0=    1 NMatS0=      1 NMatT0=    0 NMatD0=    1 NMtDS0=    0 NMtDT0=    0
 Symmetry not used in FoFCou.
 Harris En= -266.830097344909    
 JPrj=0 DoOrth=F DoCkMO=F.
 Leave Link  401 at Thu Feb 13 10:03:34 2025, MaxMem=   104857600 cpu:               0.5 elap:               0.5
 (Enter /sw/cluster/pub/apps//g16/l502.exe)
 Keep R1 ints in memory in canonical form, NReq=85282823.
 FoFCou: FMM=F IPFlag=           0 FMFlag=           0 FMFlg1=           0
         NFxFlg=           0 DoJE=F BraDBF=F KetDBF=F FulRan=T
         wScrn=  0.000000 ICntrl=       600 IOpCl=  0 I1Cent=           0 NGrid=           0
         NMat0=    1 NMatS0=  12880 NMatT0=    0 NMatD0=    1 NMtDS0=    0 NMtDT0=    0
 Symmetry not used in FoFCou.
 Two-electron integral symmetry not used.
 Closed shell SCF:
 Using DIIS extrapolation, IDIIS=  1040.
 NGot=   104857600 LenX=    21846560 LenY=    21818563
 Requested convergence on RMS density matrix=1.00D-08 within 128 cycles.
 Requested convergence on MAX density matrix=1.00D-06.
 Requested convergence on             energy=1.00D-06.
 No special actions if energy rises.

 Cycle   1  Pass 1  IDiag  1:
 E= -266.309486708821    
 DIIS: error= 6.86D-02 at cycle   1 NSaved=   1.
 NSaved= 1 IEnMin= 1 EnMin= -266.309486708821     IErMin= 1 ErrMin= 6.86D-02
 ErrMax= 6.86D-02  0.00D+00 EMaxC= 1.00D-01 BMatC= 5.10D-01 BMatP= 5.10D-01
 IDIUse=3 WtCom= 3.14D-01 WtEn= 6.86D-01
 Coeff-Com:  0.100D+01
 Coeff-En:   0.100D+01
 Coeff:      0.100D+01
 Gap=     0.369 Goal=   None    Shift=    0.000
 GapD=    0.369 DampG=1.000 DampE=0.500 DampFc=0.5000 IDamp=-1.
 Damping current iteration by 5.00D-01
 RMSDP=8.52D-03 MaxDP=2.47D-01              OVMax= 1.40D-01

 Cycle   2  Pass 1  IDiag  1:
 E= -266.433742424029     Delta-E=       -0.124255715208 Rises=F Damp=T
 DIIS: error= 2.85D-02 at cycle   2 NSaved=   2.
 NSaved= 2 IEnMin= 2 EnMin= -266.433742424029     IErMin= 2 ErrMin= 2.85D-02
 ErrMax= 2.85D-02  0.00D+00 EMaxC= 1.00D-01 BMatC= 1.14D-01 BMatP= 5.10D-01
 IDIUse=3 WtCom= 7.15D-01 WtEn= 2.85D-01
 Coeff-Com: -0.734D+00 0.173D+01
 Coeff-En:   0.000D+00 0.100D+01
 Coeff:     -0.525D+00 0.152D+01
 Gap=     0.385 Goal=   None    Shift=    0.000
 RMSDP=7.80D-03 MaxDP=2.89D-01 DE=-1.24D-01 OVMax= 3.53D-02

 Cycle   3  Pass 1  IDiag  1:
 E= -266.546559638728     Delta-E=       -0.112817214700 Rises=F Damp=F
 DIIS: error= 5.11D-03 at cycle   3 NSaved=   3.
 NSaved= 3 IEnMin= 3 EnMin= -266.546559638728     IErMin= 3 ErrMin= 5.11D-03
 ErrMax= 5.11D-03  0.00D+00 EMaxC= 1.00D-01 BMatC= 1.41D-03 BMatP= 1.14D-01
 IDIUse=3 WtCom= 9.49D-01 WtEn= 5.11D-02
 Coeff-Com: -0.110D+00 0.183D+00 0.927D+00
 Coeff-En:   0.000D+00 0.000D+00 0.100D+01
 Coeff:     -0.105D+00 0.174D+00 0.931D+00
 Gap=     0.376 Goal=   None    Shift=    0.000
 RMSDP=7.58D-04 MaxDP=2.32D-02 DE=-1.13D-01 OVMax= 1.37D-02

 Cycle   4  Pass 1  IDiag  1:
 E= -266.547597271751     Delta-E=       -0.001037633022 Rises=F Damp=F
 DIIS: error= 1.97D-03 at cycle   4 NSaved=   4.
 NSaved= 4 IEnMin= 4 EnMin= -266.547597271751     IErMin= 4 ErrMin= 1.97D-03
 ErrMax= 1.97D-03  0.00D+00 EMaxC= 1.00D-01 BMatC= 2.44D-04 BMatP= 1.41D-03
 IDIUse=3 WtCom= 9.80D-01 WtEn= 1.97D-02
 Coeff-Com: -0.159D-01 0.152D-01 0.313D+00 0.688D+00
 Coeff-En:   0.000D+00 0.000D+00 0.000D+00 0.100D+01
 Coeff:     -0.156D-01 0.149D-01 0.307D+00 0.694D+00
 Gap=     0.374 Goal=   None    Shift=    0.000
 RMSDP=4.29D-04 MaxDP=1.19D-02 DE=-1.04D-03 OVMax= 4.32D-03

 Cycle   5  Pass 1  IDiag  1:
 E= -266.547797835956     Delta-E=       -0.000200564205 Rises=F Damp=F
 DIIS: error= 6.75D-04 at cycle   5 NSaved=   5.
 NSaved= 5 IEnMin= 5 EnMin= -266.547797835956     IErMin= 5 ErrMin= 6.75D-04
 ErrMax= 6.75D-04  0.00D+00 EMaxC= 1.00D-01 BMatC= 1.74D-05 BMatP= 2.44D-04
 IDIUse=3 WtCom= 9.93D-01 WtEn= 6.75D-03
 Coeff-Com:  0.132D-01-0.230D-01-0.107D+00 0.763D-01 0.104D+01
 Coeff-En:   0.000D+00 0.000D+00 0.000D+00 0.000D+00 0.100D+01
 Coeff:      0.131D-01-0.228D-01-0.107D+00 0.757D-01 0.104D+01
 Gap=     0.375 Goal=   None    Shift=    0.000
 RMSDP=1.69D-04 MaxDP=5.51D-03 DE=-2.01D-04 OVMax= 2.49D-03

 Cycle   6  Pass 1  IDiag  1:
 E= -266.547826226326     Delta-E=       -0.000028390370 Rises=F Damp=F
 DIIS: error= 1.13D-04 at cycle   6 NSaved=   6.
 NSaved= 6 IEnMin= 6 EnMin= -266.547826226326     IErMin= 6 ErrMin= 1.13D-04
 ErrMax= 1.13D-04  0.00D+00 EMaxC= 1.00D-01 BMatC= 8.14D-07 BMatP= 1.74D-05
 IDIUse=3 WtCom= 9.99D-01 WtEn= 1.13D-03
 Coeff-Com:  0.135D-02-0.193D-02-0.132D-01-0.498D-01-0.309D-01 0.109D+01
 Coeff-En:   0.000D+00 0.000D+00 0.000D+00 0.000D+00 0.000D+00 0.100D+01
 Coeff:      0.135D-02-0.193D-02-0.132D-01-0.497D-01-0.309D-01 0.109D+01
 Gap=     0.375 Goal=   None    Shift=    0.000
 RMSDP=6.00D-05 MaxDP=1.66D-03 DE=-2.84D-05 OVMax= 6.25D-04

 Cycle   7  Pass 1  IDiag  1:
 E= -266.547828150625     Delta-E=       -0.000001924299 Rises=F Damp=F
 DIIS: error= 5.46D-05 at cycle   7 NSaved=   7.
 NSaved= 7 IEnMin= 7 EnMin= -266.547828150625     IErMin= 7 ErrMin= 5.46D-05
 ErrMax= 5.46D-05  0.00D+00 EMaxC= 1.00D-01 BMatC= 1.15D-07 BMatP= 8.14D-07
 IDIUse=1 WtCom= 1.00D+00 WtEn= 0.00D+00
 Coeff-Com: -0.575D-03 0.975D-03 0.700D-02-0.106D-01-0.478D-01-0.478D-02
 Coeff-Com:  0.106D+01
 Coeff:     -0.575D-03 0.975D-03 0.700D-02-0.106D-01-0.478D-01-0.478D-02
 Coeff:      0.106D+01
 Gap=     0.375 Goal=   None    Shift=    0.000
 RMSDP=2.02D-05 MaxDP=5.21D-04 DE=-1.92D-06 OVMax= 3.18D-04

 Cycle   8  Pass 1  IDiag  1:
 E= -266.547828447591     Delta-E=       -0.000000296966 Rises=F Damp=F
 DIIS: error= 2.46D-05 at cycle   8 NSaved=   8.
 NSaved= 8 IEnMin= 8 EnMin= -266.547828447591     IErMin= 8 ErrMin= 2.46D-05
 ErrMax= 2.46D-05  0.00D+00 EMaxC= 1.00D-01 BMatC= 4.67D-08 BMatP= 1.15D-07
 IDIUse=1 WtCom= 1.00D+00 WtEn= 0.00D+00
 Coeff-Com: -0.406D-03 0.574D-03 0.553D-02 0.763D-02 0.398D-02-0.316D+00
 Coeff-Com:  0.295D+00 0.100D+01
 Coeff:     -0.406D-03 0.574D-03 0.553D-02 0.763D-02 0.398D-02-0.316D+00
 Coeff:      0.295D+00 0.100D+01
 Gap=     0.375 Goal=   None    Shift=    0.000
 RMSDP=1.15D-05 MaxDP=2.58D-04 DE=-2.97D-07 OVMax= 1.36D-04

 Cycle   9  Pass 1  IDiag  1:
 E= -266.547828547461     Delta-E=       -0.000000099870 Rises=F Damp=F
 DIIS: error= 8.98D-06 at cycle   9 NSaved=   9.
 NSaved= 9 IEnMin= 9 EnMin= -266.547828547461     IErMin= 9 ErrMin= 8.98D-06
 ErrMax= 8.98D-06  0.00D+00 EMaxC= 1.00D-01 BMatC= 3.02D-09 BMatP= 4.67D-08
 IDIUse=1 WtCom= 1.00D+00 WtEn= 0.00D+00
 Coeff-Com:  0.157D-03-0.255D-03-0.180D-02-0.125D-02 0.848D-02 0.547D-01
 Coeff-Com: -0.182D+00-0.263D+00 0.139D+01
 Coeff:      0.157D-03-0.255D-03-0.180D-02-0.125D-02 0.848D-02 0.547D-01
 Coeff:     -0.182D+00-0.263D+00 0.139D+01
 Gap=     0.375 Goal=   None    Shift=    0.000
 RMSDP=3.67D-06 MaxDP=8.76D-05 DE=-9.99D-08 OVMax= 7.92D-05

 Cycle  10  Pass 1  IDiag  1:
 E= -266.547828558457     Delta-E=       -0.000000010996 Rises=F Damp=F
 DIIS: error= 1.42D-06 at cycle  10 NSaved=  10.
 NSaved=10 IEnMin=10 EnMin= -266.547828558457     IErMin=10 ErrMin= 1.42D-06
 ErrMax= 1.42D-06  0.00D+00 EMaxC= 1.00D-01 BMatC= 1.20D-10 BMatP= 3.02D-09
 IDIUse=1 WtCom= 1.00D+00 WtEn= 0.00D+00
 Coeff-Com:  0.169D-04-0.256D-04-0.140D-03-0.424D-03-0.587D-03 0.127D-01
 Coeff-Com:  0.507D-02-0.406D-01-0.127D+00 0.115D+01
 Coeff:      0.169D-04-0.256D-04-0.140D-03-0.424D-03-0.587D-03 0.127D-01
 Coeff:      0.507D-02-0.406D-01-0.127D+00 0.115D+01
 Gap=     0.375 Goal=   None    Shift=    0.000
 RMSDP=4.23D-07 MaxDP=9.88D-06 DE=-1.10D-08 OVMax= 1.01D-05

 Cycle  11  Pass 1  IDiag  1:
 E= -266.547828558779     Delta-E=       -0.000000000322 Rises=F Damp=F
 DIIS: error= 5.86D-07 at cycle  11 NSaved=  11.
 NSaved=11 IEnMin=11 EnMin= -266.547828558779     IErMin=11 ErrMin= 5.86D-07
 ErrMax= 5.86D-07  0.00D+00 EMaxC= 1.00D-01 BMatC= 1.12D-11 BMatP= 1.20D-10
 IDIUse=1 WtCom= 1.00D+00 WtEn= 0.00D+00
 Coeff-Com: -0.672D-05 0.110D-04 0.110D-03 0.596D-05-0.639D-03-0.235D-02
 Coeff-Com:  0.140D-01 0.132D-01-0.126D+00 0.171D+00 0.931D+00
 Coeff:     -0.672D-05 0.110D-04 0.110D-03 0.596D-05-0.639D-03-0.235D-02
 Coeff:      0.140D-01 0.132D-01-0.126D+00 0.171D+00 0.931D+00
 Gap=     0.375 Goal=   None    Shift=    0.000
 RMSDP=8.86D-08 MaxDP=2.77D-06 DE=-3.22D-10 OVMax= 2.69D-06

 Cycle  12  Pass 1  IDiag  1:
 E= -266.547828558799     Delta-E=       -0.000000000021 Rises=F Damp=F
 DIIS: error= 1.16D-07 at cycle  12 NSaved=  12.
 NSaved=12 IEnMin=12 EnMin= -266.547828558799     IErMin=12 ErrMin= 1.16D-07
 ErrMax= 1.16D-07  0.00D+00 EMaxC= 1.00D-01 BMatC= 5.91D-13 BMatP= 1.12D-11
 IDIUse=1 WtCom= 1.00D+00 WtEn= 0.00D+00
 Coeff-Com: -0.583D-06 0.656D-06 0.602D-05 0.272D-04 0.111D-03-0.101D-02
 Coeff-Com: -0.141D-02 0.352D-02 0.195D-01-0.100D+00-0.130D+00 0.121D+01
 Coeff:     -0.583D-06 0.656D-06 0.602D-05 0.272D-04 0.111D-03-0.101D-02
 Coeff:     -0.141D-02 0.352D-02 0.195D-01-0.100D+00-0.130D+00 0.121D+01
 Gap=     0.375 Goal=   None    Shift=    0.000
 RMSDP=3.22D-08 MaxDP=9.60D-07 DE=-2.05D-11 OVMax= 7.77D-07

 Cycle  13  Pass 1  IDiag  1:
 E= -266.547828558802     Delta-E=       -0.000000000003 Rises=F Damp=F
 DIIS: error= 2.80D-08 at cycle  13 NSaved=  13.
 NSaved=13 IEnMin=13 EnMin= -266.547828558802     IErMin=13 ErrMin= 2.80D-08
 ErrMax= 2.80D-08  0.00D+00 EMaxC= 1.00D-01 BMatC= 2.08D-14 BMatP= 5.91D-13
 IDIUse=1 WtCom= 1.00D+00 WtEn= 0.00D+00
 Coeff-Com:  0.382D-06-0.607D-06-0.521D-05-0.679D-05 0.770D-05 0.291D-03
 Coeff-Com: -0.356D-03-0.101D-02 0.749D-03 0.141D-01-0.967D-02-0.252D+00
 Coeff-Com:  0.125D+01
 Coeff:      0.382D-06-0.607D-06-0.521D-05-0.679D-05 0.770D-05 0.291D-03
 Coeff:     -0.356D-03-0.101D-02 0.749D-03 0.141D-01-0.967D-02-0.252D+00
 Coeff:      0.125D+01
 Gap=     0.375 Goal=   None    Shift=    0.000
 RMSDP=5.24D-09 MaxDP=1.71D-07 DE=-2.50D-12 OVMax= 1.78D-07

 SCF Done:  E(RHF) =  -266.547828559     A.U. after   13 cycles
            NFock= 13  Conv=0.52D-08     -V/T= 2.0013
 KE= 2.662044616205D+02 PE=-1.024097666608D+03 EE= 2.910700253479D+02
 Leave Link  502 at Thu Feb 13 10:03:36 2025, MaxMem=   104857600 cpu:               1.3 elap:               2.4
 (Enter /sw/cluster/pub/apps//g16/l801.exe)
 ExpMin= 3.60D-02 ExpMax= 8.59D+03 ExpMxC= 1.30D+03 IAcc=3 IRadAn=         5 AccDes= 0.00D+00
 HarFok:  IExCor=  205 AccDes= 0.00D+00 IRadAn=         5 IDoV=-2 UseB2=F ITyADJ=14
 ICtDFT= 12500011 ScaDFX=  1.000000  1.000000  1.000000  1.000000
 Largest valence mixing into a core orbital is  1.36D-04
 Largest core mixing into a valence orbital is  4.08D-05
 Range of M.O.s used for correlation:     7   160
 NBasis=   160 NAE=    21 NBE=    21 NFC=     6 NFV=     0
 NROrb=    154 NOA=    15 NOB=    15 NVA=   139 NVB=   139

 **** Warning!!: The largest alpha MO coefficient is  0.11762700D+03

 Leave Link  801 at Thu Feb 13 10:03:36 2025, MaxMem=   104857600 cpu:               0.1 elap:               0.2
 (Enter /sw/cluster/pub/apps//g16/l906.exe)
 Frozen-core derivative calculation, NFC=   6 NFV=   0.
 FulOut=F Deriv=T AODrv=F NAtomX=    10
   MMem=          44  MDisk=          15 MDiskD=          15
  W3Min=      557760 MinDsk=      866471 NBas6D=         166
 NBas2D=       14107    NTT=       13861    LW2=     2040000
    MDV=   104560220 MDiskM=        8581 NBas2p=       13946
 Fully direct method using O(ONN) memory.
 IMap=   1   2   3   4   5   6   7   8   9  10  11  12  13  14  15  16  17  18  19  20
 IMap=  21
 JobTyp=1 Pass  1:  I=   7 to  21 NPSUse=  1 ParTrn=F ParDer=F DoDerP=T.
 Spin components of T(2) and E(2):
     alpha-alpha T2 =       0.3908782148D-01 E2=     -0.1130606617D+00
     alpha-beta  T2 =       0.2212619649D+00 E2=     -0.6428164721D+00
     beta-beta   T2 =       0.3908782148D-01 E2=     -0.1130606617D+00
 The integrals were generated   1 times.
 ANorm=    0.1139928773D+01
 E2 =    -0.8689377955D+00 EUMP2 =    -0.26741676635431D+03
 Leave Link  906 at Thu Feb 13 10:03:40 2025, MaxMem=   104857600 cpu:               3.5 elap:               3.5
 (Enter /sw/cluster/pub/apps//g16/l1002.exe)
 Minotr:  Closed shell wavefunction.
          Computing MP2/KS-MP2 derivatives.
          Using Z-Vector for PSCF gradient.
          Skipping F1 and S1 gradient terms here.
          Frozen-core window.
          Direct CPHF calculation.
          Differentiating once with respect to electric field.
                with respect to dipole field.
          Electric field/nuclear overlap derivatives assumed to be zero.
          Requested convergence is 1.0D-10 RMS, and 1.0D-09 maximum.
          NewPWx=F KeepS1=T KeepF1=T KeepIn=T MapXYZ=F SortEE=F KeepMc=T.
 Keep R1 ints in memory in canonical form, NReq=85284031.
 FoFCou: FMM=F IPFlag=           0 FMFlag=           0 FMFlg1=           0
         NFxFlg=           0 DoJE=F BraDBF=F KetDBF=F FulRan=T
         wScrn=  0.000000 ICntrl=       600 IOpCl=  0 I1Cent=           0 NGrid=           0
         NMat0=    1 NMatS0=  12880 NMatT0=    0 NMatD0=    1 NMtDS0=    0 NMtDT0=    0
 Symmetry not used in FoFCou.
 Two-electron integral symmetry not used.
          MDV=     104857600 using IRadAn=       5.
          Solving linear equations separately, MaxMat=       0.
          There are     1 degrees of freedom in the 1st order CPHF.  IDoFFX=0 NUNeed=     1.
 LinEq1:  Iter=  0 NonCon=     1 RMS=5.06D-03 Max=9.34D-02 NDo=     1
 AX will form     1 AO Fock derivatives at one time.
 LinEq1:  Iter=  1 NonCon=     1 RMS=1.52D-03 Max=2.03D-02 NDo=     1
 LinEq1:  Iter=  2 NonCon=     1 RMS=5.46D-04 Max=8.99D-03 NDo=     1
 LinEq1:  Iter=  3 NonCon=     1 RMS=2.09D-04 Max=2.65D-03 NDo=     1
 LinEq1:  Iter=  4 NonCon=     1 RMS=7.47D-05 Max=1.56D-03 NDo=     1
 LinEq1:  Iter=  5 NonCon=     1 RMS=2.16D-05 Max=4.67D-04 NDo=     1
 LinEq1:  Iter=  6 NonCon=     1 RMS=8.88D-06 Max=1.36D-04 NDo=     1
 LinEq1:  Iter=  7 NonCon=     1 RMS=2.25D-06 Max=2.82D-05 NDo=     1
 LinEq1:  Iter=  8 NonCon=     1 RMS=3.51D-07 Max=5.17D-06 NDo=     1
 LinEq1:  Iter=  9 NonCon=     1 RMS=5.89D-08 Max=6.34D-07 NDo=     1
 LinEq1:  Iter= 10 NonCon=     1 RMS=1.39D-08 Max=1.52D-07 NDo=     1
 LinEq1:  Iter= 11 NonCon=     1 RMS=4.22D-09 Max=6.50D-08 NDo=     1
 LinEq1:  Iter= 12 NonCon=     1 RMS=8.81D-10 Max=9.22D-09 NDo=     1
 LinEq1:  Iter= 13 NonCon=     1 RMS=1.41D-10 Max=1.32D-09 NDo=     1
 LinEq1:  Iter= 14 NonCon=     0 RMS=2.17D-11 Max=2.72D-10 NDo=     1
 Linear equations converged to 1.000D-10 1.000D-09 after    14 iterations.
 End of Minotr F.D. properties file   721 does not exist.
 End of Minotr F.D. properties file   722 does not exist.
 End of Minotr F.D. properties file   788 does not exist.
 Leave Link 1002 at Thu Feb 13 10:03:47 2025, MaxMem=   104857600 cpu:               1.4 elap:               3.4
 (Enter /sw/cluster/pub/apps//g16/l601.exe)
 Copying SCF densities to generalized density rwf, IOpCl= 0 IROHF=0.

 **********************************************************************

            Population analysis using the MP2 density.

 **********************************************************************

 Alpha  occ. eigenvalues --  -20.56866 -11.34621 -11.27506 -11.27438 -11.25180
 Alpha  occ. eigenvalues --  -11.25177  -1.40449  -1.17295  -1.00779  -0.91604
 Alpha  occ. eigenvalues --   -0.77628  -0.75168  -0.70944  -0.61461  -0.60998
 Alpha  occ. eigenvalues --   -0.60192  -0.56810  -0.54875  -0.45200  -0.42745
 Alpha  occ. eigenvalues --   -0.34720
 Alpha virt. eigenvalues --    0.02825   0.03440   0.04595   0.05409   0.06794
 Alpha virt. eigenvalues --    0.10720   0.11592   0.14076   0.14511   0.14787
 Alpha virt. eigenvalues --    0.15100   0.15157   0.15444   0.17139   0.17821
 Alpha virt. eigenvalues --    0.17977   0.18959   0.19882   0.20091   0.20424
 Alpha virt. eigenvalues --    0.22103   0.22327   0.25571   0.25840   0.26790
 Alpha virt. eigenvalues --    0.26911   0.28091   0.33065   0.37034   0.37557
 Alpha virt. eigenvalues --    0.39111   0.40708   0.40832   0.42173   0.43216
 Alpha virt. eigenvalues --    0.45826   0.46066   0.51808   0.57179   0.61238
 Alpha virt. eigenvalues --    0.64459   0.67617   0.68599   0.70221   0.71610
 Alpha virt. eigenvalues --    0.72687   0.74576   0.75007   0.79362   0.80711
 Alpha virt. eigenvalues --    0.81594   0.88311   0.89011   0.92865   0.97026
 Alpha virt. eigenvalues --    0.97923   0.98089   1.01669   1.04663   1.07821
 Alpha virt. eigenvalues --    1.09136   1.09459   1.11434   1.18697   1.19848
 Alpha virt. eigenvalues --    1.24396   1.26687   1.29421   1.33996   1.37947
 Alpha virt. eigenvalues --    1.42502   1.47888   1.50728   1.52986   1.69410
 Alpha virt. eigenvalues --    1.77628   1.78299   1.78374   1.80257   1.84719
 Alpha virt. eigenvalues --    1.85418   1.95837   1.96935   1.99073   1.99780
 Alpha virt. eigenvalues --    2.04373   2.08243   2.10474   2.14808   2.18852
 Alpha virt. eigenvalues --    2.19467   2.25284   2.30777   2.40959   2.41854
 Alpha virt. eigenvalues --    2.42537   2.45219   2.55393   2.63091   2.67390
 Alpha virt. eigenvalues --    2.79337   2.85520   2.93025   2.96604   3.00632
 Alpha virt. eigenvalues --    3.00839   3.03139   3.03593   3.04410   3.11427
 Alpha virt. eigenvalues --    3.13064   3.25018   3.26386   3.32917   3.37258
 Alpha virt. eigenvalues --    3.41690   3.45410   3.56613   3.61980   3.63592
 Alpha virt. eigenvalues --    3.76079   3.88600   3.89531   3.95662   4.10633
 Alpha virt. eigenvalues --    4.42640   4.43446   4.43566   4.52488   4.99893
 Alpha virt. eigenvalues --    5.60493   5.75709   6.30179  24.79696  24.90690
 Alpha virt. eigenvalues --   25.01231  25.38440  25.41523  51.71703
          Condensed to atoms (all electrons):
               1          2          3          4          5          6
     1  C    7.829493  -1.357480  -0.170286   0.755716   0.046013  -1.357480
     2  C   -1.357480   8.898641   0.605882  -2.492686  -0.212160  -1.438853
     3  H   -0.170286   0.605882   0.520143  -0.204514  -0.017422  -0.052303
     4  C    0.755716  -2.492686  -0.204514   8.326375   0.570724   1.782987
     5  H    0.046013  -0.212160  -0.017422   0.570724   0.534140   0.094390
     6  C   -1.357480  -1.438853  -0.052303   1.782987   0.094390   8.898641
     7  H   -0.170286  -0.052303  -0.002375   0.090163   0.003079   0.605882
     8  C    0.755716   1.782987   0.090163  -2.283122  -0.212105  -2.492686
     9  H    0.046013   0.094390   0.003079  -0.212105  -0.012826  -0.212160
    10  O    0.095734  -0.023107  -0.001493  -0.040244   0.000898  -0.023107
               7          8          9         10
     1  C   -0.170286   0.755716   0.046013   0.095734
     2  C   -0.052303   1.782987   0.094390  -0.023107
     3  H   -0.002375   0.090163   0.003079  -0.001493
     4  C    0.090163  -2.283122  -0.212105  -0.040244
     5  H    0.003079  -0.212105  -0.012826   0.000898
     6  C    0.605882  -2.492686  -0.212160  -0.023107
     7  H    0.520143  -0.204514  -0.017422  -0.001493
     8  C   -0.204514   8.326375   0.570724  -0.040244
     9  H   -0.017422   0.570724   0.534140   0.000898
    10  O   -0.001493  -0.040244   0.000898   8.230596
 Mulliken charges:
               1
     1  C   -0.473150
     2  C    0.194689
     3  H    0.229127
     4  C   -0.293292
     5  H    0.205270
     6  C    0.194689
     7  H    0.229127
     8  C   -0.293292
     9  H    0.205270
    10  O   -0.198437
 Sum of Mulliken charges =  -0.00000
 Mulliken charges with hydrogens summed into heavy atoms:
               1
     1  C   -0.473150
     2  C    0.423816
     4  C   -0.088022
     6  C    0.423816
     8  C   -0.088022
    10  O   -0.198437
 Electronic spatial extent (au):  <R**2>=            460.5020
 Charge=             -0.0000 electrons
 Dipole moment (field-independent basis, Debye):
    X=             -0.0000    Y=             -3.0510    Z=             -0.0000  Tot=              3.0510
 Quadrupole moment (field-independent basis, Debye-Ang):
   XX=            -31.2893   YY=            -37.6366   ZZ=            -36.9359
   XY=              0.0000   XZ=             -0.0000   YZ=             -0.0000
 Traceless Quadrupole moment (field-independent basis, Debye-Ang):
   XX=              3.9980   YY=             -2.3493   ZZ=             -1.6487
   XY=              0.0000   XZ=             -0.0000   YZ=             -0.0000
 Octapole moment (field-independent basis, Debye-Ang**2):
  XXX=              0.0000  YYY=            -18.2910  ZZZ=             -0.0000  XYY=             -0.0000
  XXY=              1.5724  XXZ=             -0.0000  XZZ=             -0.0000  YZZ=              5.2604
  YYZ=              0.0000  XYZ=              0.0000
 Hexadecapole moment (field-independent basis, Debye-Ang**3):
 XXXX=           -197.9060 YYYY=           -366.1634 ZZZZ=            -42.2287 XXXY=              0.0000
 XXXZ=             -0.0000 YYYX=             -0.0000 YYYZ=             -0.0000 ZZZX=             -0.0000
 ZZZY=             -0.0000 XXYY=            -90.2168 XXZZ=            -49.7178 YYZZ=            -67.6754
 XXYZ=             -0.0000 YYXZ=              0.0000 ZZXY=             -0.0000
 N-N= 2.002753510805D+02 E-N=-1.024969152776D+03  KE= 2.673265782761D+02
 No NMR shielding tensors so no spin-rotation constants.
 Leave Link  601 at Thu Feb 13 10:03:51 2025, MaxMem=   104857600 cpu:               0.0 elap:               1.5
 (Enter /sw/cluster/pub/apps//g16/l9999.exe)
 1\1\GINC-N01\SP\RMP2-FC\6-311++G(d,p)\C5H4O1\UNKNOWN\13-Feb-2025\0\\#P
  MP2/6-311++G** nosymm Density=MP2\\Penta-O\\0,1\C,0,0.,0.82305206,0.\
 C,0,1.20464609,-0.08850401,0.\H,0,2.22350617,0.26812602,0.\C,0,0.75156
 606,-1.34680211,0.\H,0,1.3461861,-2.25065417,0.\C,0,-1.20464609,-0.088
 50401,0.\H,0,-2.22350617,0.26812602,0.\C,0,-0.75156606,-1.34680211,0.\
 H,0,-1.3461861,-2.25065417,0.\O,0,0.,2.03130215,0.\\Version=ES64L-G16R
 evA.03\HF=-266.5478286\MP2=-267.4167664\RMSD=5.241e-09\Dipole=0.,-1.20
 03695,0.\Quadrupole=2.9724161,-1.7466736,-1.2257425,0.,0.,0.\PG=C02V [
 C2(C1O1),SGV(C4H4)]\\@


 IF YOU PERCEIVE THAT THERE ARE FOUR POSSIBLE WAYS IN
 WHICH A PROCEDURE CAN GO WRONG AND CIRCUMVENT THESE, 
 THEN A FIFTH WAY WILL DEVELOP.

                              -- MURPHY'S TWELFTH LAW
 Job cpu time:       0 days  0 hours  0 minutes  7.1 seconds.
 Elapsed time:       0 days  0 hours  0 minutes 11.7 seconds.
 File lengths (MBytes):  RWF=     15 Int=      0 D2E=      0 Chk=      4 Scr=      1
 Normal termination of Gaussian 16 at Thu Feb 13 10:03:52 2025.
