Penta-O                                                                 
SP        RMP2-FC                                                     6-311++G(d,p)       
Number of atoms                            I               10
Info1-9                                    I   N=           9
          17          17           0           0           0         110
           1           2           1
Full Title                                 C   N=           1
Penta-O     
Route                                      C   N=           3
#P MP2/6-311++G** nosymm Density=MP2
Charge                                     I                0
Multiplicity                               I                1
Number of electrons                        I               42
Number of alpha electrons                  I               21
Number of beta electrons                   I               21
Number of basis functions                  I              160
Number of independent functions            I              160
Number of point charges in /Mol/           I                0
Number of translation vectors              I                0
Atomic numbers                             I   N=          10
           6           6           1           6           1           6
           1           6           1           8
Nuclear charges                            R   N=          10
  6.00000000E+00  6.00000000E+00  1.00000000E+00  6.00000000E+00  1.00000000E+00
  6.00000000E+00  1.00000000E+00  6.00000000E+00  1.00000000E+00  8.00000000E+00
Current cartesian coordinates              R   N=          30
  0.00000000E+00  1.55534298E+00  0.00000000E+00  2.27645119E+00 -1.67248340E-01
  0.00000000E+00  4.20181770E+00  5.06684745E-01  0.00000000E+00  1.42025402E+00
 -2.54508713E+00  0.00000000E+00  2.54392304E+00 -4.25311998E+00  0.00000000E+00
 -2.27645119E+00 -1.67248340E-01  0.00000000E+00 -4.20181770E+00  5.06684745E-01
  0.00000000E+00 -1.42025402E+00 -2.54508713E+00  0.00000000E+00 -2.54392304E+00
 -4.25311998E+00  0.00000000E+00  0.00000000E+00  3.83860474E+00  0.00000000E+00
Number of symbols in /Mol/                 I                0
Force Field                                I                0
Atom Types                                 C   N=          10
                                                            
                                                            
Int Atom Types                             I   N=          10
           0           0           0           0           0           0
           0           0           0           0
MM charges                                 R   N=          10
  0.00000000E+00  0.00000000E+00  0.00000000E+00  0.00000000E+00  0.00000000E+00
  0.00000000E+00  0.00000000E+00  0.00000000E+00  0.00000000E+00  0.00000000E+00
Integer atomic weights                     I   N=          10
          12          12           1          12           1          12
           1          12           1          16
Real atomic weights                        R   N=          10
  1.20000000E+01  1.20000000E+01  1.00782504E+00  1.20000000E+01  1.00782504E+00
  1.20000000E+01  1.00782504E+00  1.20000000E+01  1.00782504E+00  1.59949146E+01
Atom fragment info                         I   N=          10
           0           0           0           0           0           0
           0           0           0           0
Atom residue num                           I   N=          10
           0           0           0           0           0           0
           0           0           0           0
Nuclear spins                              I   N=          10
           0           0           1           0           1           0
           1           0           1           0
Nuclear ZEff                               R   N=          10
 -3.60000000E+00 -3.60000000E+00 -1.00000000E+00 -3.60000000E+00 -1.00000000E+00
 -3.60000000E+00 -1.00000000E+00 -3.60000000E+00 -1.00000000E+00 -5.60000000E+00
Nuclear ZNuc                               R   N=          10
  6.00000000E+00  6.00000000E+00  1.00000000E+00  6.00000000E+00  1.00000000E+00
  6.00000000E+00  1.00000000E+00  6.00000000E+00  1.00000000E+00  8.00000000E+00
Nuclear QMom                               R   N=          10
  0.00000000E+00  0.00000000E+00  0.00000000E+00  0.00000000E+00  0.00000000E+00
  0.00000000E+00  0.00000000E+00  0.00000000E+00  0.00000000E+00  0.00000000E+00
Nuclear GFac                               R   N=          10
  0.00000000E+00  0.00000000E+00  2.79284600E+00  0.00000000E+00  2.79284600E+00
  0.00000000E+00  2.79284600E+00  0.00000000E+00  2.79284600E+00  0.00000000E+00
MicOpt                                     I   N=          10
          -1          -1          -1          -1          -1          -1
          -1          -1          -1          -1
Number of residues                         I                0
Number of secondary structures             I                0
Number of contracted shells                I               56
Number of primitive shells                 I              106
Pure/Cartesian d shells                    I                0
Pure/Cartesian f shells                    I                0
Highest angular momentum                   I                2
Largest degree of contraction              I                6
Shell types                                I   N=          56
           0          -1          -1          -1          -1          -2
           0          -1          -1          -1          -1          -2
           0           0           0           0           1           0
          -1          -1          -1          -1          -2           0
           0           0           0           1           0          -1
          -1          -1          -1          -2           0           0
           0           0           1           0          -1          -1
          -1          -1          -2           0           0           0
           0           1           0          -1          -1          -1
          -1          -2
Number of primitives per shell             I   N=          56
           6           3           1           1           1           1
           6           3           1           1           1           1
           3           1           1           1           1           6
           3           1           1           1           1           3
           1           1           1           1           6           3
           1           1           1           1           3           1
           1           1           1           6           3           1
           1           1           1           3           1           1
           1           1           6           3           1           1
           1           1
Shell to atom map                          I   N=          56
           1           1           1           1           1           1
           2           2           2           2           2           2
           3           3           3           3           3           4
           4           4           4           4           4           5
           5           5           5           5           6           6
           6           6           6           6           7           7
           7           7           7           8           8           8
           8           8           8           9           9           9
           9           9          10          10          10          10
          10          10
Primitive exponents                        R   N=         106
  4.56324000E+03  6.82024000E+02  1.54973000E+02  4.44553000E+01  1.30290000E+01
  1.82773000E+00  2.09642000E+01  4.80331000E+00  1.45933000E+00  4.83456000E-01
  1.45585000E-01  4.38000000E-02  6.26000000E-01  4.56324000E+03  6.82024000E+02
  1.54973000E+02  4.44553000E+01  1.30290000E+01  1.82773000E+00  2.09642000E+01
  4.80331000E+00  1.45933000E+00  4.83456000E-01  1.45585000E-01  4.38000000E-02
  6.26000000E-01  3.38650000E+01  5.09479000E+00  1.15879000E+00  3.25840000E-01
  1.02741000E-01  3.60000000E-02  7.50000000E-01  4.56324000E+03  6.82024000E+02
  1.54973000E+02  4.44553000E+01  1.30290000E+01  1.82773000E+00  2.09642000E+01
  4.80331000E+00  1.45933000E+00  4.83456000E-01  1.45585000E-01  4.38000000E-02
  6.26000000E-01  3.38650000E+01  5.09479000E+00  1.15879000E+00  3.25840000E-01
  1.02741000E-01  3.60000000E-02  7.50000000E-01  4.56324000E+03  6.82024000E+02
  1.54973000E+02  4.44553000E+01  1.30290000E+01  1.82773000E+00  2.09642000E+01
  4.80331000E+00  1.45933000E+00  4.83456000E-01  1.45585000E-01  4.38000000E-02
  6.26000000E-01  3.38650000E+01  5.09479000E+00  1.15879000E+00  3.25840000E-01
  1.02741000E-01  3.60000000E-02  7.50000000E-01  4.56324000E+03  6.82024000E+02
  1.54973000E+02  4.44553000E+01  1.30290000E+01  1.82773000E+00  2.09642000E+01
  4.80331000E+00  1.45933000E+00  4.83456000E-01  1.45585000E-01  4.38000000E-02
  6.26000000E-01  3.38650000E+01  5.09479000E+00  1.15879000E+00  3.25840000E-01
  1.02741000E-01  3.60000000E-02  7.50000000E-01  8.58850000E+03  1.29723000E+03
  2.99296000E+02  8.73771000E+01  2.56789000E+01  3.74004000E+00  4.21175000E+01
  9.62837000E+00  2.85332000E+00  9.05661000E-01  2.55611000E-01  8.45000000E-02
  1.29200000E+00
Contraction coefficients                   R   N=         106
  1.96665025E-03  1.52306019E-02  7.61269097E-02  2.60801033E-01  6.16462078E-01
  2.21006028E-01  1.14660081E-01  9.19999648E-01 -3.03068213E-03  1.00000000E+00
  1.00000000E+00  1.00000000E+00  1.00000000E+00  1.96665025E-03  1.52306019E-02
  7.61269097E-02  2.60801033E-01  6.16462078E-01  2.21006028E-01  1.14660081E-01
  9.19999648E-01 -3.03068213E-03  1.00000000E+00  1.00000000E+00  1.00000000E+00
  1.00000000E+00  2.54938145E-02  1.90373109E-01  8.52161486E-01  1.00000000E+00
  1.00000000E+00  1.00000000E+00  1.00000000E+00  1.96665025E-03  1.52306019E-02
  7.61269097E-02  2.60801033E-01  6.16462078E-01  2.21006028E-01  1.14660081E-01
  9.19999648E-01 -3.03068213E-03  1.00000000E+00  1.00000000E+00  1.00000000E+00
  1.00000000E+00  2.54938145E-02  1.90373109E-01  8.52161486E-01  1.00000000E+00
  1.00000000E+00  1.00000000E+00  1.00000000E+00  1.96665025E-03  1.52306019E-02
  7.61269097E-02  2.60801033E-01  6.16462078E-01  2.21006028E-01  1.14660081E-01
  9.19999648E-01 -3.03068213E-03  1.00000000E+00  1.00000000E+00  1.00000000E+00
  1.00000000E+00  2.54938145E-02  1.90373109E-01  8.52161486E-01  1.00000000E+00
  1.00000000E+00  1.00000000E+00  1.00000000E+00  1.96665025E-03  1.52306019E-02
  7.61269097E-02  2.60801033E-01  6.16462078E-01  2.21006028E-01  1.14660081E-01
  9.19999648E-01 -3.03068213E-03  1.00000000E+00  1.00000000E+00  1.00000000E+00
  1.00000000E+00  2.54938145E-02  1.90373109E-01  8.52161486E-01  1.00000000E+00
  1.00000000E+00  1.00000000E+00  1.00000000E+00  1.89515008E-03  1.43859006E-02
  7.07320031E-02  2.40001011E-01  5.94797026E-01  2.80802012E-01  1.13889012E-01
  9.20811101E-01 -3.27447036E-03  1.00000000E+00  1.00000000E+00  1.00000000E+00
  1.00000000E+00
P(S=P) Contraction coefficients            R   N=         106
  0.00000000E+00  0.00000000E+00  0.00000000E+00  0.00000000E+00  0.00000000E+00
  0.00000000E+00  4.02486927E-02  2.37593957E-01  8.15853851E-01  1.00000000E+00
  1.00000000E+00  1.00000000E+00  0.00000000E+00  0.00000000E+00  0.00000000E+00
  0.00000000E+00  0.00000000E+00  0.00000000E+00  0.00000000E+00  4.02486927E-02
  2.37593957E-01  8.15853851E-01  1.00000000E+00  1.00000000E+00  1.00000000E+00
  0.00000000E+00  0.00000000E+00  0.00000000E+00  0.00000000E+00  0.00000000E+00
  0.00000000E+00  0.00000000E+00  0.00000000E+00  0.00000000E+00  0.00000000E+00
  0.00000000E+00  0.00000000E+00  0.00000000E+00  0.00000000E+00  4.02486927E-02
  2.37593957E-01  8.15853851E-01  1.00000000E+00  1.00000000E+00  1.00000000E+00
  0.00000000E+00  0.00000000E+00  0.00000000E+00  0.00000000E+00  0.00000000E+00
  0.00000000E+00  0.00000000E+00  0.00000000E+00  0.00000000E+00  0.00000000E+00
  0.00000000E+00  0.00000000E+00  0.00000000E+00  0.00000000E+00  4.02486927E-02
  2.37593957E-01  8.15853851E-01  1.00000000E+00  1.00000000E+00  1.00000000E+00
  0.00000000E+00  0.00000000E+00  0.00000000E+00  0.00000000E+00  0.00000000E+00
  0.00000000E+00  0.00000000E+00  0.00000000E+00  0.00000000E+00  0.00000000E+00
  0.00000000E+00  0.00000000E+00  0.00000000E+00  0.00000000E+00  4.02486927E-02
  2.37593957E-01  8.15853851E-01  1.00000000E+00  1.00000000E+00  1.00000000E+00
  0.00000000E+00  0.00000000E+00  0.00000000E+00  0.00000000E+00  0.00000000E+00
  0.00000000E+00  0.00000000E+00  0.00000000E+00  0.00000000E+00  0.00000000E+00
  0.00000000E+00  0.00000000E+00  0.00000000E+00  0.00000000E+00  3.65113974E-02
  2.37152983E-01  8.19701941E-01  1.00000000E+00  1.00000000E+00  1.00000000E+00
  0.00000000E+00
Coordinates of each shell                  R   N=         168
  0.00000000E+00  1.55534298E+00  0.00000000E+00  0.00000000E+00  1.55534298E+00
  0.00000000E+00  0.00000000E+00  1.55534298E+00  0.00000000E+00  0.00000000E+00
  1.55534298E+00  0.00000000E+00  0.00000000E+00  1.55534298E+00  0.00000000E+00
  0.00000000E+00  1.55534298E+00  0.00000000E+00  2.27645119E+00 -1.67248340E-01
  0.00000000E+00  2.27645119E+00 -1.67248340E-01  0.00000000E+00  2.27645119E+00
 -1.67248340E-01  0.00000000E+00  2.27645119E+00 -1.67248340E-01  0.00000000E+00
  2.27645119E+00 -1.67248340E-01  0.00000000E+00  2.27645119E+00 -1.67248340E-01
  0.00000000E+00  4.20181770E+00  5.06684745E-01  0.00000000E+00  4.20181770E+00
  5.06684745E-01  0.00000000E+00  4.20181770E+00  5.06684745E-01  0.00000000E+00
  4.20181770E+00  5.06684745E-01  0.00000000E+00  4.20181770E+00  5.06684745E-01
  0.00000000E+00  1.42025402E+00 -2.54508713E+00  0.00000000E+00  1.42025402E+00
 -2.54508713E+00  0.00000000E+00  1.42025402E+00 -2.54508713E+00  0.00000000E+00
  1.42025402E+00 -2.54508713E+00  0.00000000E+00  1.42025402E+00 -2.54508713E+00
  0.00000000E+00  1.42025402E+00 -2.54508713E+00  0.00000000E+00  2.54392304E+00
 -4.25311998E+00  0.00000000E+00  2.54392304E+00 -4.25311998E+00  0.00000000E+00
  2.54392304E+00 -4.25311998E+00  0.00000000E+00  2.54392304E+00 -4.25311998E+00
  0.00000000E+00  2.54392304E+00 -4.25311998E+00  0.00000000E+00 -2.27645119E+00
 -1.67248340E-01  0.00000000E+00 -2.27645119E+00 -1.67248340E-01  0.00000000E+00
 -2.27645119E+00 -1.67248340E-01  0.00000000E+00 -2.27645119E+00 -1.67248340E-01
  0.00000000E+00 -2.27645119E+00 -1.67248340E-01  0.00000000E+00 -2.27645119E+00
 -1.67248340E-01  0.00000000E+00 -4.20181770E+00  5.06684745E-01  0.00000000E+00
 -4.20181770E+00  5.06684745E-01  0.00000000E+00 -4.20181770E+00  5.06684745E-01
  0.00000000E+00 -4.20181770E+00  5.06684745E-01  0.00000000E+00 -4.20181770E+00
  5.06684745E-01  0.00000000E+00 -1.42025402E+00 -2.54508713E+00  0.00000000E+00
 -1.42025402E+00 -2.54508713E+00  0.00000000E+00 -1.42025402E+00 -2.54508713E+00
  0.00000000E+00 -1.42025402E+00 -2.54508713E+00  0.00000000E+00 -1.42025402E+00
 -2.54508713E+00  0.00000000E+00 -1.42025402E+00 -2.54508713E+00  0.00000000E+00
 -2.54392304E+00 -4.25311998E+00  0.00000000E+00 -2.54392304E+00 -4.25311998E+00
  0.00000000E+00 -2.54392304E+00 -4.25311998E+00  0.00000000E+00 -2.54392304E+00
 -4.25311998E+00  0.00000000E+00 -2.54392304E+00 -4.25311998E+00  0.00000000E+00
  0.00000000E+00  3.83860474E+00  0.00000000E+00  0.00000000E+00  3.83860474E+00
  0.00000000E+00  0.00000000E+00  3.83860474E+00  0.00000000E+00  0.00000000E+00
  3.83860474E+00  0.00000000E+00  0.00000000E+00  3.83860474E+00  0.00000000E+00
  0.00000000E+00  3.83860474E+00  0.00000000E+00
Num ILSW                                   I              100
ILSW                                       I   N=         100
           0           0           0           0           2           0
           0           0           0           0           0          -1
           5           0           0           0           0           0
           0           0           0           0           0           0
           1           1           0           0           0           0
           0           0      100000           0          -1           0
           0           0           0           0           0           0
           0           0           0           1           0           0
           0 -2000000000           1           0           0           0
           0           0           4          52           0           0
           0           0           0           0           0           0
           0           0           0          10           0           1
           0           0           0           0           0           0
           0           0           0           0           0           0
           0           0           0           0           0           0
           0           0           0           0           0           0
           0           0           0           0
Num RLSW                                   I               52
RLSW                                       R   N=          52
  1.00000000E+00  1.00000000E+00  1.00000000E+00  1.00000000E+00  1.00000000E+00
  0.00000000E+00  0.00000000E+00  1.00000000E+00  0.00000000E+00  0.00000000E+00
  0.00000000E+00  0.00000000E+00  1.00000000E+00  0.00000000E+00  0.00000000E+00
  0.00000000E+00  0.00000000E+00  1.00000000E+00  0.00000000E+00  0.00000000E+00
  0.00000000E+00  0.00000000E+00  1.00000000E+00  0.00000000E+00  0.00000000E+00
  0.00000000E+00  0.00000000E+00  1.00000000E+00  0.00000000E+00  0.00000000E+00
  0.00000000E+00  0.00000000E+00  1.00000000E+00  0.00000000E+00  0.00000000E+00
  0.00000000E+00  0.00000000E+00  0.00000000E+00  1.00000000E+00  1.00000000E+00
  0.00000000E+00  1.00000000E+00  0.00000000E+00  0.00000000E+00  0.00000000E+00
  0.00000000E+00  0.00000000E+00  0.00000000E+00  0.00000000E+00  0.00000000E+00
  0.00000000E+00  0.00000000E+00
MxBond                                     I                3
NBond                                      I   N=          10
           3           3           1           3           1           3
           1           3           1           1
IBond                                      I   N=          30
           2           6          10           1           3           4
           2           0           0           2           5           8
           4           0           0           1           7           8
           6           0           0           4           6           9
           8           0           0           1           0           0
RBond                                      R   N=          30
  1.00000000E+00  1.00000000E+00  2.00000000E+00  1.00000000E+00  1.00000000E+00
  2.00000000E+00  1.00000000E+00  0.00000000E+00  0.00000000E+00  2.00000000E+00
  1.00000000E+00  1.00000000E+00  1.00000000E+00  0.00000000E+00  0.00000000E+00
  1.00000000E+00  1.00000000E+00  2.00000000E+00  1.00000000E+00  0.00000000E+00
  0.00000000E+00  1.00000000E+00  2.00000000E+00  1.00000000E+00  1.00000000E+00
  0.00000000E+00  0.00000000E+00  2.00000000E+00  0.00000000E+00  0.00000000E+00
Virial Ratio                               R      2.001289861695959E+00
SCF Energy                                 R     -2.665478285588018E+02
MP2 Energy                                 R     -2.674167663543068E+02
Total Energy                               R     -2.674167663543068E+02
Post-SCF wavefunction norm                 R      1.139928773126825E+00
RMS Density                                R      5.240583703356242E-09
Job Status                                 I                1
Nuclear derivative order                   I                0
External E-field                           R   N=          35
  0.00000000E+00  0.00000000E+00  0.00000000E+00  0.00000000E+00  0.00000000E+00
  0.00000000E+00  0.00000000E+00  0.00000000E+00  0.00000000E+00  0.00000000E+00
  0.00000000E+00  0.00000000E+00  0.00000000E+00  0.00000000E+00  0.00000000E+00
  0.00000000E+00  0.00000000E+00  0.00000000E+00  0.00000000E+00  0.00000000E+00
  0.00000000E+00  0.00000000E+00  0.00000000E+00  0.00000000E+00  0.00000000E+00
  0.00000000E+00  0.00000000E+00  0.00000000E+00  0.00000000E+00  0.00000000E+00
  0.00000000E+00  0.00000000E+00  0.00000000E+00  0.00000000E+00  0.00000000E+00
IOpCl                                      I                0
IROHF                                      I                0
Alpha Orbital Energies                     R   N=         160
 -2.05686596E+01 -1.13462148E+01 -1.12750637E+01 -1.12743848E+01 -1.12518050E+01
 -1.12517693E+01 -1.40449339E+00 -1.17295115E+00 -1.00778990E+00 -9.16035529E-01
 -7.76279106E-01 -7.51683632E-01 -7.09442923E-01 -6.14611749E-01 -6.09977626E-01
 -6.01916115E-01 -5.68099173E-01 -5.48747847E-01 -4.52003939E-01 -4.27445451E-01
 -3.47202627E-01  2.82472749E-02  3.44007424E-02  4.59545283E-02  5.40930859E-02
  6.79377128E-02  1.07203044E-01  1.15919972E-01  1.40761819E-01  1.45106758E-01
  1.47873726E-01  1.50999123E-01  1.51570261E-01  1.54437423E-01  1.71388965E-01
  1.78205948E-01  1.79768191E-01  1.89592251E-01  1.98818440E-01  2.00913619E-01
  2.04238540E-01  2.21031585E-01  2.23265046E-01  2.55708400E-01  2.58402713E-01
  2.67897401E-01  2.69114440E-01  2.80910138E-01  3.30649902E-01  3.70337522E-01
  3.75567373E-01  3.91114913E-01  4.07081234E-01  4.08320982E-01  4.21730161E-01
  4.32155567E-01  4.58263278E-01  4.60656185E-01  5.18080663E-01  5.71787574E-01
  6.12384131E-01  6.44592321E-01  6.76172524E-01  6.85992074E-01  7.02212241E-01
  7.16095149E-01  7.26873746E-01  7.45764131E-01  7.50074702E-01  7.93623083E-01
  8.07112839E-01  8.15941170E-01  8.83107777E-01  8.90105732E-01  9.28653444E-01
  9.70255913E-01  9.79234419E-01  9.80891005E-01  1.01669412E+00  1.04662743E+00
  1.07821268E+00  1.09136057E+00  1.09458946E+00  1.11434326E+00  1.18697025E+00
  1.19848013E+00  1.24396227E+00  1.26686695E+00  1.29421440E+00  1.33996004E+00
  1.37947241E+00  1.42502443E+00  1.47888259E+00  1.50727566E+00  1.52986455E+00
  1.69409597E+00  1.77628392E+00  1.78299066E+00  1.78373719E+00  1.80256515E+00
  1.84719092E+00  1.85418474E+00  1.95836809E+00  1.96934776E+00  1.99072557E+00
  1.99780027E+00  2.04373112E+00  2.08243386E+00  2.10473739E+00  2.14807852E+00
  2.18852223E+00  2.19466905E+00  2.25283994E+00  2.30777379E+00  2.40958676E+00
  2.41854161E+00  2.42537383E+00  2.45218886E+00  2.55393277E+00  2.63090623E+00
  2.67389860E+00  2.79336819E+00  2.85519739E+00  2.93024886E+00  2.96603944E+00
  3.00631607E+00  3.00839491E+00  3.03139381E+00  3.03593170E+00  3.04409892E+00
  3.11426794E+00  3.13063868E+00  3.25018334E+00  3.26386211E+00  3.32916966E+00
  3.37258491E+00  3.41690337E+00  3.45410179E+00  3.56613356E+00  3.61980337E+00
  3.63591722E+00  3.76078507E+00  3.88599934E+00  3.89531236E+00  3.95662246E+00
  4.10633156E+00  4.42639944E+00  4.43445687E+00  4.43565942E+00  4.52487887E+00
  4.99892750E+00  5.60492743E+00  5.75709215E+00  6.30178534E+00  2.47969589E+01
  2.49068971E+01  2.50123080E+01  2.53844024E+01  2.54152252E+01  5.17170320E+01
Alpha MO coefficients                      R   N=       25600
  6.69289986E-06 -7.62647213E-05  2.72282968E-16  8.24922904E-05  5.34842794E-16
  3.32948570E-04 -7.43945780E-15  3.64138066E-04 -6.53831223E-16 -2.15303788E-04
  5.99979821E-14  9.24101781E-04  3.96953464E-16 -3.81261602E-03 -1.45437053E-13
  1.52709307E-04  1.36902634E-15 -4.35596100E-05 -3.96245548E-17  1.23545171E-16
 -1.90951829E-04 -2.57834721E-15  7.02898694E-07  2.65371284E-06  1.17181415E-05
 -1.31283124E-05  2.23061392E-16 -2.68764189E-05 -5.57950424E-05  4.53025497E-05
 -4.43481943E-16  5.58207381E-04 -4.43166464E-04 -3.22204162E-04  6.69138379E-16
  2.34593579E-03 -8.59137980E-04  1.47850918E-04 -1.20841233E-15  2.54832566E-07
 -4.71781817E-17 -7.77771434E-17 -3.48424088E-06 -3.40095911E-05 -5.86565036E-06
  1.37664968E-04  1.66717873E-04  2.99146437E-04 -2.48872550E-05 -2.99064185E-06
  3.71993519E-17  4.62829946E-09 -1.33540266E-06  2.09127671E-06  1.60073471E-06
  6.73693951E-16  2.80992035E-06 -8.66210539E-06  3.05463782E-06 -1.02013822E-15
 -4.08722917E-04 -4.80814082E-05 -1.63422044E-04  4.26150743E-16 -8.01450619E-04
  2.99150529E-04 -3.56105192E-04 -2.33196014E-16 -5.39960378E-06 -7.89188858E-18
 -4.49964834E-17 -5.27388934E-06  1.74819888E-06 -3.98488126E-06  2.33241665E-05
 -5.34587898E-05 -1.66305374E-04  4.41025410E-06  6.47592803E-06  1.33631979E-17
  7.02898696E-07  2.65371284E-06 -1.17181415E-05 -1.31283124E-05 -7.83278431E-16
 -2.68764189E-05  5.57950424E-05  4.53025497E-05  1.22279482E-15  5.58207381E-04
  4.43166465E-04 -3.22204162E-04 -8.99772726E-16  2.34593580E-03  8.59137982E-04
  1.47850916E-04 -7.66438670E-16  2.54832572E-07  1.65578665E-18 -8.53587054E-18
 -3.48424088E-06  3.40095911E-05 -5.86565036E-06  1.37664968E-04  1.66717873E-04
  2.99146437E-04  2.48872550E-05 -2.99064186E-06 -1.86104168E-17  4.62829750E-09
 -1.33540266E-06 -2.09127671E-06  1.60073470E-06 -7.65564283E-17  2.80992031E-06
  8.66210539E-06  3.05463785E-06  2.92131227E-16 -4.08722917E-04  4.80814082E-05
 -1.63422044E-04 -7.61967311E-17 -8.01450633E-04 -2.99150531E-04 -3.56105196E-04
  6.57733360E-16 -5.39960380E-06  2.06425520E-17 -1.76873134E-16 -5.27388935E-06
 -1.74819888E-06 -3.98488126E-06  2.33241664E-05 -5.34587900E-05 -1.66305375E-04
 -4.41025411E-06  6.47592802E-06 -5.65691688E-17  5.51489344E-01  4.71689424E-01
 -5.14821199E-16 -1.71516262E-03  4.52346113E-17  5.47797089E-03  2.40077327E-15
  6.68185871E-04 -3.05618363E-16 -1.36775270E-03 -1.08560148E-14 -8.94187748E-05
  9.63135721E-17  8.33928007E-04  1.71408112E-14  1.10700621E-04 -4.46150989E-16
 -1.99287524E-04 -1.39992080E-16 -3.00997255E-16  7.08610133E-05  4.56084403E-16
  5.63477389E-01  4.66619903E-01 -9.76888622E-15  2.61499336E-04  2.28059804E-16
  3.75856063E-03  3.32412938E-14  2.82461565E-04 -6.61631631E-17 -5.99630270E-04
 -4.37588807E-13  1.34158420E-03  1.61945560E-17 -4.84614436E-03 -1.41566756E-12
  1.36668582E-03 -1.54552171E-15 -4.18974763E-04 -5.09457328E-17 -2.73491071E-17
 -4.15895242E-04  1.29650739E-14  1.91892631E-03  1.53786772E-03 -9.99606787E-05
  5.45342211E-05  5.79703320E-16  2.36176143E-04 -2.31039324E-04  3.08675444E-04
 -8.31987882E-16  6.35776464E-04 -5.77780261E-04 -3.69667246E-04  7.39992546E-16
  4.34691511E-03 -1.25999218E-03 -5.20843549E-04 -1.84323620E-16  9.21196073E-06
 -2.97645029E-17  1.02757101E-16 -5.09394109E-05 -2.09480475E-04  1.64397874E-05
  1.87937726E-04  2.80657545E-04  3.74057999E-04 -6.88146207E-05 -1.17979487E-05
  6.34787522E-18 -8.13237746E-06 -1.72566013E-05  5.95059585E-06 -7.52443282E-06
 -2.84096702E-16  5.16333358E-05 -1.98445212E-05  8.32954667E-05  4.99113539E-16
 -5.01448726E-04 -6.10346508E-05 -1.89862634E-04 -6.98539517E-16 -2.31941694E-03
  3.83075585E-05 -4.87677452E-04  1.14120289E-15 -5.05726586E-06  2.25231105E-17
  9.54237212E-17 -4.45818104E-05  1.07619171E-05  2.14722077E-06  4.56569777E-05
 -2.44620638E-07 -4.14837513E-05  4.24507022E-06  2.50998742E-05  5.01119172E-17
  1.91892631E-03  1.53786772E-03  9.99606787E-05  5.45342211E-05 -3.29216353E-16
  2.36176143E-04  2.31039324E-04  3.08675444E-04  5.03171716E-16  6.35776463E-04
  5.77780260E-04 -3.69667246E-04 -8.19153514E-16  4.34691505E-03  1.25999217E-03
 -5.20843540E-04  2.15857128E-15  9.21196072E-06 -4.87630430E-17  7.13971641E-17
 -5.09394108E-05  2.09480475E-04  1.64397874E-05  1.87937726E-04  2.80657544E-04
  3.74057994E-04  6.88146207E-05 -1.17979487E-05 -1.34223320E-17 -8.13237746E-06
 -1.72566013E-05 -5.95059583E-06 -7.52443280E-06 -1.29056654E-16  5.16333359E-05
  1.98445212E-05  8.32954666E-05  3.24848802E-17 -5.01448725E-04  6.10346521E-05
 -1.89862633E-04  5.99333007E-16 -2.31941685E-03 -3.83075455E-05 -4.87677430E-04
 -1.79178747E-15 -5.05726585E-06 -4.67646420E-17 -5.44589200E-17 -4.45818104E-05
 -1.07619171E-05  2.14722077E-06  4.56569780E-05 -2.44618506E-07 -4.14837429E-05
 -4.24507019E-06  2.50998743E-05 -9.10688701E-17 -1.96698762E-04 -2.99534468E-04
 -1.73454231E-15 -3.15076431E-04  1.99460524E-16  6.70095728E-04 -2.93650068E-15
 -5.06358645E-04 -9.20791197E-17 -1.05646734E-03  3.12304931E-14  5.26040732E-04
 -1.32797665E-16 -3.76523151E-05  1.28386842E-13 -3.41026968E-04  5.13258192E-16
 -3.99107041E-05 -6.80278292E-17 -6.86124037E-17 -1.83110090E-04 -1.27894936E-15
 -8.26104522E-05 -7.87512897E-05  1.70753271E-15  9.16792740E-06 -7.93431721E-17
  4.22173916E-05 -1.17479254E-14 -6.92872460E-05  1.12594741E-16  2.60763418E-05
  9.18282337E-14 -3.33764339E-04  5.47310461E-16 -2.07214392E-03  1.49032188E-14
  6.10993964E-04  5.20703518E-15  4.36406631E-06  1.73380813E-16 -1.44615054E-16
 -8.12636311E-06 -1.68392246E-15  1.42863913E-02  1.17957989E-02 -6.86993744E-05
 -1.70032943E-04  3.22008775E-16  2.90018975E-04  7.49513336E-05  5.04688410E-05
 -4.63463577E-16 -4.81560737E-04  1.60382866E-04  5.77320579E-05  2.49861400E-16
  7.24228030E-04 -5.45950537E-05 -1.08888667E-04 -2.96567642E-15  9.01619534E-05
 -5.32997870E-18 -1.28618064E-16 -2.98984976E-05  3.54594560E-06  1.65820039E-05
 -3.99090708E-05  2.60853417E-05 -5.34191331E-05  8.31480809E-06 -2.12659106E-05
  2.28166136E-16  3.98053118E-01  3.29615844E-01 -3.36204133E-04 -2.27429091E-04
 -6.15838177E-18  3.23147358E-03  1.17142255E-05  4.37514298E-04  3.09132404E-16
 -3.45212905E-04 -3.57913173E-05  4.32364691E-05 -6.56127273E-16 -1.89579597E-04
 -5.04218687E-04  5.48377926E-04  1.21477601E-15 -3.15600209E-04  1.81513489E-16
  9.67796644E-17 -1.27971510E-04  1.16748460E-04  2.92467572E-04 -4.18168424E-05
  4.27518887E-04  4.30036400E-04 -1.59300096E-05  4.48340128E-05  8.89238887E-17
  1.42863913E-02  1.17957989E-02  6.86993745E-05 -1.70032943E-04  3.11437887E-16
  2.90018975E-04 -7.49513336E-05  5.04688410E-05 -2.20642087E-16 -4.81560737E-04
 -1.60382866E-04  5.77320580E-05 -4.81599813E-16  7.24228035E-04  5.45950550E-05