Pyramid-20                                                              
SP        RMP2-FC                                                     6-311++G(d,p)       
Number of atoms                            I               12
Info1-9                                    I   N=           9
          21          21           0           0           0         110
           1           2           1
Charge                                     I                0
Multiplicity                               I                1
Number of electrons                        I               42
Number of alpha electrons                  I               21
Number of beta electrons                   I               21
Number of basis functions                  I              174
Number of independent functions            I              174
Number of point charges in /Mol/           I                0
Number of translation vectors              I                0
Atomic numbers                             I   N=          12
           6           6           6           6           6           6
           1           1           1           1           1           1
Nuclear charges                            R   N=          12
  6.00000000E+00  6.00000000E+00  6.00000000E+00  6.00000000E+00  6.00000000E+00
  6.00000000E+00  1.00000000E+00  1.00000000E+00  1.00000000E+00  1.00000000E+00
  1.00000000E+00  1.00000000E+00
Current cartesian coordinates              R   N=          36
 -2.28686342E+00  1.32037244E+00 -1.00244482E-01 -2.28686342E+00 -1.32037244E+00
 -1.00244482E-01  0.00000000E+00 -2.64085259E+00 -1.00182121E-01  2.28686342E+00
 -1.32037244E+00 -1.00244482E-01  2.28686342E+00  1.32037244E+00 -1.00244482E-01
  3.23411167E-16  2.64085259E+00 -1.00182121E-01 -3.95626071E+00  2.28397214E+00
  6.01322014E-01 -3.95626071E+00 -2.28397214E+00  6.01322014E-01  0.00000000E+00
 -4.56838080E+00  6.01380595E-01  3.95626071E+00 -2.28397214E+00  6.01322014E-01
  3.95626071E+00  2.28397214E+00  6.01322014E-01  5.59465293E-16  4.56838080E+00
  6.01380595E-01
Force Field                                I                0
Int Atom Types                             I   N=          12
           0           0           0           0           0           0
           0           0           0           0           0           0
MM charges                                 R   N=          12
  0.00000000E+00  0.00000000E+00  0.00000000E+00  0.00000000E+00  0.00000000E+00
  0.00000000E+00  0.00000000E+00  0.00000000E+00  0.00000000E+00  0.00000000E+00
  0.00000000E+00  0.00000000E+00
Integer atomic weights                     I   N=          12
          12          12          12          12          12          12
           1           1           1           1           1           1
Real atomic weights                        R   N=          12
  1.20000000E+01  1.20000000E+01  1.20000000E+01  1.20000000E+01  1.20000000E+01
  1.20000000E+01  1.00782504E+00  1.00782504E+00  1.00782504E+00  1.00782504E+00
  1.00782504E+00  1.00782504E+00
Atom fragment info                         I   N=          12
           0           0           0           0           0           0
           0           0           0           0           0           0
Atom residue num                           I   N=          12
           0           0           0           0           0           0
           0           0           0           0           0           0
Nuclear spins                              I   N=          12
           0           0           0           0           0           0
           1           1           1           1           1           1
Nuclear ZEff                               R   N=          12
 -3.60000000E+00 -3.60000000E+00 -3.60000000E+00 -3.60000000E+00 -3.60000000E+00
 -3.60000000E+00 -1.00000000E+00 -1.00000000E+00 -1.00000000E+00 -1.00000000E+00
 -1.00000000E+00 -1.00000000E+00
Nuclear QMom                               R   N=          12
  0.00000000E+00  0.00000000E+00  0.00000000E+00  0.00000000E+00  0.00000000E+00
  0.00000000E+00  0.00000000E+00  0.00000000E+00  0.00000000E+00  0.00000000E+00
  0.00000000E+00  0.00000000E+00
Nuclear GFac                               R   N=          12
  0.00000000E+00  0.00000000E+00  0.00000000E+00  0.00000000E+00  0.00000000E+00
  0.00000000E+00  2.79284600E+00  2.79284600E+00  2.79284600E+00  2.79284600E+00
  2.79284600E+00  2.79284600E+00
MicOpt                                     I   N=          12
          -1          -1          -1          -1          -1          -1
          -1          -1          -1          -1          -1          -1
Number of contracted shells                I               66
Number of primitive shells                 I              120
Pure/Cartesian d shells                    I                0
Pure/Cartesian f shells                    I                0
Highest angular momentum                   I                2
Largest degree of contraction              I                6
Shell types                                I   N=          66
           0          -1          -1          -1          -1          -2
           0          -1          -1          -1          -1          -2
           0          -1          -1          -1          -1          -2
           0          -1          -1          -1          -1          -2
           0          -1          -1          -1          -1          -2
           0          -1          -1          -1          -1          -2
           0           0           0           0           1           0
           0           0           0           1           0           0
           0           0           1           0           0           0
           0           1           0           0           0           0
           1           0           0           0           0           1
Number of primitives per shell             I   N=          66
           6           3           1           1           1           1
           6           3           1           1           1           1
           6           3           1           1           1           1
           6           3           1           1           1           1
           6           3           1           1           1           1
           6           3           1           1           1           1
           3           1           1           1           1           3
           1           1           1           1           3           1
           1           1           1           3           1           1
           1           1           3           1           1           1
           1           3           1           1           1           1
Shell to atom map                          I   N=          66
           1           1           1           1           1           1
           2           2           2           2           2           2
           3           3           3           3           3           3
           4           4           4           4           4           4
           5           5           5           5           5           5
           6           6           6           6           6           6
           7           7           7           7           7           8
           8           8           8           8           9           9
           9           9           9          10          10          10
          10          10          11          11          11          11
          11          12          12          12          12          12
Primitive exponents                        R   N=         120
  4.56324000E+03  6.82024000E+02  1.54973000E+02  4.44553000E+01  1.30290000E+01
  1.82773000E+00  2.09642000E+01  4.80331000E+00  1.45933000E+00  4.83456000E-01
  1.45585000E-01  4.38000000E-02  6.26000000E-01  4.56324000E+03  6.82024000E+02
  1.54973000E+02  4.44553000E+01  1.30290000E+01  1.82773000E+00  2.09642000E+01
  4.80331000E+00  1.45933000E+00  4.83456000E-01  1.45585000E-01  4.38000000E-02
  6.26000000E-01  4.56324000E+03  6.82024000E+02  1.54973000E+02  4.44553000E+01
  1.30290000E+01  1.82773000E+00  2.09642000E+01  4.80331000E+00  1.45933000E+00
  4.83456000E-01  1.45585000E-01  4.38000000E-02  6.26000000E-01  4.56324000E+03
  6.82024000E+02  1.54973000E+02  4.44553000E+01  1.30290000E+01  1.82773000E+00
  2.09642000E+01  4.80331000E+00  1.45933000E+00  4.83456000E-01  1.45585000E-01
  4.38000000E-02  6.26000000E-01  4.56324000E+03  6.82024000E+02  1.54973000E+02
  4.44553000E+01  1.30290000E+01  1.82773000E+00  2.09642000E+01  4.80331000E+00
  1.45933000E+00  4.83456000E-01  1.45585000E-01  4.38000000E-02  6.26000000E-01
  4.56324000E+03  6.82024000E+02  1.54973000E+02  4.44553000E+01  1.30290000E+01
  1.82773000E+00  2.09642000E+01  4.80331000E+00  1.45933000E+00  4.83456000E-01
  1.45585000E-01  4.38000000E-02  6.26000000E-01  3.38650000E+01  5.09479000E+00
  1.15879000E+00  3.25840000E-01  1.02741000E-01  3.60000000E-02  7.50000000E-01
  3.38650000E+01  5.09479000E+00  1.15879000E+00  3.25840000E-01  1.02741000E-01
  3.60000000E-02  7.50000000E-01  3.38650000E+01  5.09479000E+00  1.15879000E+00
  3.25840000E-01  1.02741000E-01  3.60000000E-02  7.50000000E-01  3.38650000E+01
  5.09479000E+00  1.15879000E+00  3.25840000E-01  1.02741000E-01  3.60000000E-02
  7.50000000E-01  3.38650000E+01  5.09479000E+00  1.15879000E+00  3.25840000E-01
  1.02741000E-01  3.60000000E-02  7.50000000E-01  3.38650000E+01  5.09479000E+00
  1.15879000E+00  3.25840000E-01  1.02741000E-01  3.60000000E-02  7.50000000E-01
Contraction coefficients                   R   N=         120
  1.96665025E-03  1.52306019E-02  7.61269097E-02  2.60801033E-01  6.16462078E-01
  2.21006028E-01  1.14660081E-01  9.19999648E-01 -3.03068213E-03  1.00000000E+00
  1.00000000E+00  1.00000000E+00  1.00000000E+00  1.96665025E-03  1.52306019E-02
  7.61269097E-02  2.60801033E-01  6.16462078E-01  2.21006028E-01  1.14660081E-01
  9.19999648E-01 -3.03068213E-03  1.00000000E+00  1.00000000E+00  1.00000000E+00
  1.00000000E+00  1.96665025E-03  1.52306019E-02  7.61269097E-02  2.60801033E-01
  6.16462078E-01  2.21006028E-01  1.14660081E-01  9.19999648E-01 -3.03068213E-03
  1.00000000E+00  1.00000000E+00  1.00000000E+00  1.00000000E+00  1.96665025E-03
  1.52306019E-02  7.61269097E-02  2.60801033E-01  6.16462078E-01  2.21006028E-01
  1.14660081E-01  9.19999648E-01 -3.03068213E-03  1.00000000E+00  1.00000000E+00
  1.00000000E+00  1.00000000E+00  1.96665025E-03  1.52306019E-02  7.61269097E-02
  2.60801033E-01  6.16462078E-01  2.21006028E-01  1.14660081E-01  9.19999648E-01
 -3.03068213E-03  1.00000000E+00  1.00000000E+00  1.00000000E+00  1.00000000E+00
  1.96665025E-03  1.52306019E-02  7.61269097E-02  2.60801033E-01  6.16462078E-01
  2.21006028E-01  1.14660081E-01  9.19999648E-01 -3.03068213E-03  1.00000000E+00
  1.00000000E+00  1.00000000E+00  1.00000000E+00  2.54938145E-02  1.90373109E-01
  8.52161486E-01  1.00000000E+00  1.00000000E+00  1.00000000E+00  1.00000000E+00
  2.54938145E-02  1.90373109E-01  8.52161486E-01  1.00000000E+00  1.00000000E+00
  1.00000000E+00  1.00000000E+00  2.54938145E-02  1.90373109E-01  8.52161486E-01
  1.00000000E+00  1.00000000E+00  1.00000000E+00  1.00000000E+00  2.54938145E-02
  1.90373109E-01  8.52161486E-01  1.00000000E+00  1.00000000E+00  1.00000000E+00
  1.00000000E+00  2.54938145E-02  1.90373109E-01  8.52161486E-01  1.00000000E+00
  1.00000000E+00  1.00000000E+00  1.00000000E+00  2.54938145E-02  1.90373109E-01
  8.52161486E-01  1.00000000E+00  1.00000000E+00  1.00000000E+00  1.00000000E+00
P(S=P) Contraction coefficients            R   N=         120
  0.00000000E+00  0.00000000E+00  0.00000000E+00  0.00000000E+00  0.00000000E+00
  0.00000000E+00  4.02486927E-02  2.37593957E-01  8.15853851E-01  1.00000000E+00
  1.00000000E+00  1.00000000E+00  0.00000000E+00  0.00000000E+00  0.00000000E+00
  0.00000000E+00  0.00000000E+00  0.00000000E+00  0.00000000E+00  4.02486927E-02
  2.37593957E-01  8.15853851E-01  1.00000000E+00  1.00000000E+00  1.00000000E+00
  0.00000000E+00  0.00000000E+00  0.00000000E+00  0.00000000E+00  0.00000000E+00
  0.00000000E+00  0.00000000E+00  4.02486927E-02  2.37593957E-01  8.15853851E-01
  1.00000000E+00  1.00000000E+00  1.00000000E+00  0.00000000E+00  0.00000000E+00
  0.00000000E+00  0.00000000E+00  0.00000000E+00  0.00000000E+00  0.00000000E+00
  4.02486927E-02  2.37593957E-01  8.15853851E-01  1.00000000E+00  1.00000000E+00
  1.00000000E+00  0.00000000E+00  0.00000000E+00  0.00000000E+00  0.00000000E+00
  0.00000000E+00  0.00000000E+00  0.00000000E+00  4.02486927E-02  2.37593957E-01
  8.15853851E-01  1.00000000E+00  1.00000000E+00  1.00000000E+00  0.00000000E+00
  0.00000000E+00  0.00000000E+00  0.00000000E+00  0.00000000E+00  0.00000000E+00
  0.00000000E+00  4.02486927E-02  2.37593957E-01  8.15853851E-01  1.00000000E+00
  1.00000000E+00  1.00000000E+00  0.00000000E+00  0.00000000E+00  0.00000000E+00
  0.00000000E+00  0.00000000E+00  0.00000000E+00  0.00000000E+00  0.00000000E+00
  0.00000000E+00  0.00000000E+00  0.00000000E+00  0.00000000E+00  0.00000000E+00
  0.00000000E+00  0.00000000E+00  0.00000000E+00  0.00000000E+00  0.00000000E+00
  0.00000000E+00  0.00000000E+00  0.00000000E+00  0.00000000E+00  0.00000000E+00
  0.00000000E+00  0.00000000E+00  0.00000000E+00  0.00000000E+00  0.00000000E+00
  0.00000000E+00  0.00000000E+00  0.00000000E+00  0.00000000E+00  0.00000000E+00
  0.00000000E+00  0.00000000E+00  0.00000000E+00  0.00000000E+00  0.00000000E+00
  0.00000000E+00  0.00000000E+00  0.00000000E+00  0.00000000E+00  0.00000000E+00
Coordinates of each shell                  R   N=         198
 -2.28686342E+00  1.32037244E+00 -1.00244482E-01 -2.28686342E+00  1.32037244E+00
 -1.00244482E-01 -2.28686342E+00  1.32037244E+00 -1.00244482E-01 -2.28686342E+00
  1.32037244E+00 -1.00244482E-01 -2.28686342E+00  1.32037244E+00 -1.00244482E-01
 -2.28686342E+00  1.32037244E+00 -1.00244482E-01 -2.28686342E+00 -1.32037244E+00
 -1.00244482E-01 -2.28686342E+00 -1.32037244E+00 -1.00244482E-01 -2.28686342E+00
 -1.32037244E+00 -1.00244482E-01 -2.28686342E+00 -1.32037244E+00 -1.00244482E-01
 -2.28686342E+00 -1.32037244E+00 -1.00244482E-01 -2.28686342E+00 -1.32037244E+00
 -1.00244482E-01  0.00000000E+00 -2.64085259E+00 -1.00182121E-01  0.00000000E+00
 -2.64085259E+00 -1.00182121E-01  0.00000000E+00 -2.64085259E+00 -1.00182121E-01
  0.00000000E+00 -2.64085259E+00 -1.00182121E-01  0.00000000E+00 -2.64085259E+00
 -1.00182121E-01  0.00000000E+00 -2.64085259E+00 -1.00182121E-01  2.28686342E+00
 -1.32037244E+00 -1.00244482E-01  2.28686342E+00 -1.32037244E+00 -1.00244482E-01
  2.28686342E+00 -1.32037244E+00 -1.00244482E-01  2.28686342E+00 -1.32037244E+00
 -1.00244482E-01  2.28686342E+00 -1.32037244E+00 -1.00244482E-01  2.28686342E+00
 -1.32037244E+00 -1.00244482E-01  2.28686342E+00  1.32037244E+00 -1.00244482E-01
  2.28686342E+00  1.32037244E+00 -1.00244482E-01  2.28686342E+00  1.32037244E+00
 -1.00244482E-01  2.28686342E+00  1.32037244E+00 -1.00244482E-01  2.28686342E+00
  1.32037244E+00 -1.00244482E-01  2.28686342E+00  1.32037244E+00 -1.00244482E-01
  3.23411167E-16  2.64085259E+00 -1.00182121E-01  3.23411167E-16  2.64085259E+00
 -1.00182121E-01  3.23411167E-16  2.64085259E+00 -1.00182121E-01  3.23411167E-16
  2.64085259E+00 -1.00182121E-01  3.23411167E-16  2.64085259E+00 -1.00182121E-01
  3.23411167E-16  2.64085259E+00 -1.00182121E-01 -3.95626071E+00  2.28397214E+00
  6.01322014E-01 -3.95626071E+00  2.28397214E+00  6.01322014E-01 -3.95626071E+00
  2.28397214E+00  6.01322014E-01 -3.95626071E+00  2.28397214E+00  6.01322014E-01
 -3.95626071E+00  2.28397214E+00  6.01322014E-01 -3.95626071E+00 -2.28397214E+00
  6.01322014E-01 -3.95626071E+00 -2.28397214E+00  6.01322014E-01 -3.95626071E+00
 -2.28397214E+00  6.01322014E-01 -3.95626071E+00 -2.28397214E+00  6.01322014E-01
 -3.95626071E+00 -2.28397214E+00  6.01322014E-01  0.00000000E+00 -4.56838080E+00
  6.01380595E-01  0.00000000E+00 -4.56838080E+00  6.01380595E-01  0.00000000E+00
 -4.56838080E+00  6.01380595E-01  0.00000000E+00 -4.56838080E+00  6.01380595E-01
  0.00000000E+00 -4.56838080E+00  6.01380595E-01  3.95626071E+00 -2.28397214E+00
  6.01322014E-01  3.95626071E+00 -2.28397214E+00  6.01322014E-01  3.95626071E+00
 -2.28397214E+00  6.01322014E-01  3.95626071E+00 -2.28397214E+00  6.01322014E-01
  3.95626071E+00 -2.28397214E+00  6.01322014E-01  3.95626071E+00  2.28397214E+00
  6.01322014E-01  3.95626071E+00  2.28397214E+00  6.01322014E-01  3.95626071E+00
  2.28397214E+00  6.01322014E-01  3.95626071E+00  2.28397214E+00  6.01322014E-01
  3.95626071E+00  2.28397214E+00  6.01322014E-01  5.59465293E-16  4.56838080E+00
  6.01380595E-01  5.59465293E-16  4.56838080E+00  6.01380595E-01  5.59465293E-16
  4.56838080E+00  6.01380595E-01  5.59465293E-16  4.56838080E+00  6.01380595E-01
  5.59465293E-16  4.56838080E+00  6.01380595E-01
Constraint Structure                       R   N=          36
 -2.28686342E+00  1.32037244E+00 -1.00244482E-01 -2.28686342E+00 -1.32037244E+00
 -1.00244482E-01  0.00000000E+00 -2.64085259E+00 -1.00182121E-01  2.28686342E+00
 -1.32037244E+00 -1.00244482E-01  2.28686342E+00  1.32037244E+00 -1.00244482E-01
  3.23411167E-16  2.64085259E+00 -1.00182121E-01 -3.95626071E+00  2.28397214E+00
  6.01322014E-01 -3.95626071E+00 -2.28397214E+00  6.01322014E-01  0.00000000E+00
 -4.56838080E+00  6.01380595E-01  3.95626071E+00 -2.28397214E+00  6.01322014E-01
  3.95626071E+00  2.28397214E+00  6.01322014E-01  5.59465293E-16  4.56838080E+00
  6.01380595E-01
Num ILSW                                   I              100
ILSW                                       I   N=         100
           0           0           0           0           2           0
           0           0           0           0           0          -1
           0           0           0           0           0           0
           0           0           0           0           0           0
           1           0           0           0           0           0
           0           0      100000           0          -1           0
           0           0           0           0           0           0
           0           0           0           1           0           0
           0           0           1           0           0           0
           0           0           4          40           0           0
           0           0           0           0           0           0
           0           0           0           0           0           0
           0           0           0           0           0           0
           0           0           0           0           0           0
           0           0           0           0           0           0
           0           0           0           0           0           0
           0           0           0           0
Num RLSW                                   I               40
RLSW                                       R   N=          40
  1.00000000E+00  1.00000000E+00  1.00000000E+00  1.00000000E+00  1.00000000E+00
  0.00000000E+00  0.00000000E+00  1.00000000E+00  0.00000000E+00  0.00000000E+00
  0.00000000E+00  0.00000000E+00  1.00000000E+00  0.00000000E+00  0.00000000E+00
  0.00000000E+00  0.00000000E+00  1.00000000E+00  0.00000000E+00  0.00000000E+00
  0.00000000E+00  0.00000000E+00  1.00000000E+00  0.00000000E+00  0.00000000E+00
  0.00000000E+00  0.00000000E+00  1.00000000E+00  0.00000000E+00  0.00000000E+00
  0.00000000E+00  0.00000000E+00  0.00000000E+00  0.00000000E+00  0.00000000E+00
  0.00000000E+00  0.00000000E+00  0.00000000E+00  1.00000000E+00  1.00000000E+00
MxBond                                     I                3
NBond                                      I   N=          12
           3           3           3           3           3           3
           1           1           1           1           1           1
IBond                                      I   N=          36
           2           6           7           1           3           8
           2           4           9           3           5          10
           4           6          11           1           5          12
           1           0           0           2           0           0
           3           0           0           4           0           0
           5           0           0           6           0           0
RBond                                      R   N=          36
  1.50000000E+00  1.50000000E+00  1.00000000E+00  1.50000000E+00  1.50000000E+00
  1.00000000E+00  1.50000000E+00  1.50000000E+00  1.00000000E+00  1.50000000E+00
  1.50000000E+00  1.00000000E+00  1.50000000E+00  1.50000000E+00  1.00000000E+00
  1.50000000E+00  1.50000000E+00  1.00000000E+00  1.00000000E+00  0.00000000E+00
  0.00000000E+00  1.00000000E+00  0.00000000E+00  0.00000000E+00  1.00000000E+00
  0.00000000E+00  0.00000000E+00  1.00000000E+00  0.00000000E+00  0.00000000E+00
  1.00000000E+00  0.00000000E+00  0.00000000E+00  1.00000000E+00  0.00000000E+00
  0.00000000E+00
Virial Ratio                               R      2.001310927877389E+00
SCF Energy                                 R     -2.307257633002535E+02
MP2 Energy                                 R     -2.315595571721912E+02
Total Energy                               R     -2.315595571721912E+02
Post-SCF wavefunction norm                 R      1.145730895835259E+00
RMS Density                                R      3.768634351394161E-09
External E-field                           R   N=          35
  0.00000000E+00  0.00000000E+00  0.00000000E+00  0.00000000E+00  0.00000000E+00
  0.00000000E+00  0.00000000E+00  0.00000000E+00  0.00000000E+00  0.00000000E+00
  0.00000000E+00  0.00000000E+00  0.00000000E+00  0.00000000E+00  0.00000000E+00
  0.00000000E+00  0.00000000E+00  0.00000000E+00  0.00000000E+00  0.00000000E+00
  0.00000000E+00  0.00000000E+00  0.00000000E+00  0.00000000E+00  0.00000000E+00
  0.00000000E+00  0.00000000E+00  0.00000000E+00  0.00000000E+00  0.00000000E+00
  0.00000000E+00  0.00000000E+00  0.00000000E+00  0.00000000E+00  0.00000000E+00
IOpCl                                      I                0
IROHF                                      I                0
Alpha Orbital Energies                     R   N=         174
 -1.12420298E+01 -1.12414698E+01 -1.12414669E+01 -1.12402549E+01 -1.12402522E+01
 -1.12396597E+01 -1.15393929E+00 -1.01883260E+00 -1.01881897E+00 -8.25898258E-01
 -8.25882929E-01 -7.10438027E-01 -6.39593321E-01 -6.21222655E-01 -5.89478406E-01
 -5.89447563E-01 -5.02551252E-01 -4.93592410E-01 -4.93578441E-01 -3.36932997E-01
 -3.36921117E-01  4.25122609E-02  5.26378720E-02  5.26382701E-02  7.02910015E-02
  7.02928135E-02  9.19680779E-02  1.01469926E-01  1.01474059E-01  1.23104476E-01
  1.45538280E-01  1.45539508E-01  1.62862269E-01  1.64091600E-01  1.83137747E-01
  1.83140483E-01  1.93916983E-01  1.96406844E-01  1.98106096E-01  1.98107366E-01
  2.11090169E-01  2.11091038E-01  2.18149505E-01  2.18153034E-01  2.27144652E-01
  2.27185309E-01  2.27187436E-01  2.52677526E-01  2.52677943E-01  2.66948353E-01
  2.88117959E-01  2.88119869E-01  3.04484149E-01  3.09558079E-01  3.54777752E-01
  3.68324382E-01  3.68331573E-01  4.29212278E-01  4.29219911E-01  4.68229789E-01
  4.78471404E-01  4.78488216E-01  5.04807520E-01  5.04808176E-01  5.94240929E-01
  6.04509685E-01  7.16531065E-01  7.24831697E-01  7.35279485E-01  7.35282915E-01
  7.45478475E-01  7.45482761E-01  7.56583215E-01  7.70074584E-01  7.70076900E-01
  7.93782931E-01  8.01051673E-01  8.01054276E-01  8.64252165E-01  8.72930908E-01
  8.72933887E-01  9.06752985E-01  9.06761876E-01  9.17268112E-01  9.17272871E-01
  9.22932084E-01  9.30220598E-01  9.30253828E-01  1.04135548E+00  1.08304988E+00
  1.08305521E+00  1.10455288E+00  1.12065691E+00  1.12065728E+00  1.12759117E+00
  1.20007613E+00  1.22620172E+00  1.27485302E+00  1.45058513E+00  1.45061463E+00
  1.53802523E+00  1.53805162E+00  1.56599540E+00  1.72784982E+00  1.76045309E+00
  1.76051705E+00  1.77314419E+00  1.81804965E+00  1.81805188E+00  1.87224692E+00
  1.87229923E+00  1.97071245E+00  1.98643909E+00  1.98649658E+00  1.99909346E+00
  2.03468464E+00  2.03472614E+00  2.07032673E+00  2.07035239E+00  2.07744850E+00
  2.12915473E+00  2.19945593E+00  2.19946942E+00  2.30255277E+00  2.30272182E+00
  2.30275322E+00  2.34800788E+00  2.34801999E+00  2.41558543E+00  2.41561465E+00
  2.59446163E+00  2.67281851E+00  2.67288220E+00  2.72948711E+00  2.73255609E+00
  2.79167654E+00  2.79171320E+00  2.86476924E+00  2.88372589E+00  2.88376768E+00
  2.97569463E+00  2.97570578E+00  2.97698456E+00  2.97699086E+00  2.97986930E+00
  3.06591793E+00  3.11077620E+00  3.22305719E+00  3.22307359E+00  3.24138546E+00
  3.26246397E+00  3.26255596E+00  3.32521666E+00  3.32521804E+00  3.53113424E+00
  3.53189320E+00  3.76655545E+00  3.76659222E+00  3.86604144E+00  3.89286681E+00
  3.89290539E+00  3.95952016E+00  4.39750483E+00  4.39753020E+00  4.50482965E+00
  4.50487345E+00  4.56447752E+00  5.22017451E+00  2.47202373E+01  2.51196546E+01
  2.51196777E+01  2.52385411E+01  2.52385632E+01  2.53174551E+01
Alpha MO coefficients                      R   N=       30276
  2.29730825E-01  1.90213828E-01  9.37956144E-06 -5.20279643E-06 -8.90255873E-05
  1.99983522E-03  1.76760100E-04 -1.01918197E-04  6.48733986E-05 -3.30999835E-04
 -2.69115977E-05  1.55224845E-05 -3.10885261E-05  1.66452998E-04  4.08228553E-05
 -2.36004406E-05  1.13663067E-05 -1.12732899E-04 -9.29840715E-06  5.34422382E-06
 -3.22073220E-05  5.59052729E-05  2.29730825E-01  1.90213828E-01  9.37956144E-06
  5.20279643E-06 -8.90255873E-05  1.99983522E-03  1.76760100E-04  1.01918197E-04
  6.48733986E-05 -3.30999835E-04 -2.69115977E-05 -1.55224845E-05 -3.10885261E-05
  1.66452998E-04  4.08228553E-05  2.36004406E-05  1.13663067E-05 -1.12732899E-04
 -9.29840715E-06 -5.34422382E-06 -3.22073220E-05 -5.59052729E-05  2.30275296E-01
  1.90664834E-01  0.00000000E+00  1.04689817E-05 -8.92556095E-05  2.00366349E-03
  0.00000000E+00  2.04219499E-04  6.51116584E-05 -3.31660477E-04  0.00000000E+00
 -3.12293028E-05 -3.12615483E-05  1.71553401E-04  0.00000000E+00  4.96903487E-05
  1.08792247E-05 -1.13171628E-04  0.00000000E+00 -1.08569761E-05  6.45817746E-05
  0.00000000E+00  2.29730825E-01  1.90213828E-01 -9.37956144E-06  5.20279643E-06
 -8.90255873E-05  1.99983522E-03 -1.76760100E-04  1.01918197E-04  6.48733986E-05
 -3.30999835E-04  2.69115977E-05 -1.55224845E-05 -3.10885261E-05  1.66452998E-04
 -4.08228553E-05  2.36004406E-05  1.13663067E-05 -1.12732899E-04  9.29840715E-06
 -5.34422382E-06 -3.22073220E-05  5.59052729E-05  2.29730825E-01  1.90213828E-01
 -9.37956144E-06 -5.20279643E-06 -8.90255873E-05  1.99983522E-03 -1.76760100E-04
 -1.01918197E-04  6.48733986E-05 -3.30999835E-04  2.69115977E-05  1.55224845E-05
 -3.10885261E-05  1.66452998E-04 -4.08228553E-05 -2.36004406E-05  1.13663067E-05
 -1.12732899E-04  9.29840715E-06  5.34422382E-06 -3.22073220E-05 -5.59052729E-05
  2.30275296E-01  1.90664834E-01  0.00000000E+00 -1.04689817E-05 -8.92556095E-05
  2.00366349E-03  0.00000000E+00 -2.04219499E-04  6.51116584E-05 -3.31660477E-04
  0.00000000E+00  3.12293028E-05 -3.12615483E-05  1.71553401E-04  0.00000000E+00
 -4.96903487E-05  1.08792247E-05 -1.13171628E-04  0.00000000E+00  1.08569761E-05
  6.45817746E-05  0.00000000E+00  1.71914884E-04  1.06618204E-05  8.71203406E-05
 -9.88393894E-05  2.24081272E-05 -1.29017916E-05 -1.58290074E-05  1.71914884E-04
  1.06618204E-05  8.71203406E-05 -9.88393894E-05  2.24081272E-05  1.29017916E-05
 -1.58290074E-05  1.72309156E-04  1.04899834E-05  8.77567024E-05 -9.77222274E-05
  0.00000000E+00  2.58573885E-05 -1.58218589E-05  1.71914884E-04  1.06618204E-05
  8.71203406E-05 -9.88393894E-05 -2.24081272E-05  1.29017916E-05 -1.58290074E-05
  1.71914884E-04  1.06618204E-05  8.71203406E-05 -9.88393894E-05 -2.24081272E-05
 -1.29017916E-05 -1.58290074E-05  1.72309156E-04  1.04899834E-05  8.77567024E-05
 -9.77222274E-05  0.00000000E+00 -2.58573885E-05 -1.58218589E-05 -1.62347162E-01
 -1.34440246E-01 -7.01093213E-05 -1.46558807E-04  6.71761281E-05 -1.32122549E-03
 -1.38532808E-04 -4.72349370E-05 -6.91530528E-05  1.11053104E-04  1.27711472E-04
  1.52404611E-04  2.87472464E-05  1.99164430E-04 -4.77437045E-04 -2.45250882E-04
  3.09037198E-05  9.00567046E-05  3.34631880E-05  2.19269548E-05 -4.72709919E-05
 -8.19004363E-05  1.62347162E-01  1.34440246E-01  7.01093213E-05 -1.46558807E-04
 -6.71761281E-05  1.32122549E-03  1.38532808E-04 -4.72349370E-05  6.91530528E-05
 -1.11053104E-04 -1.27711472E-04  1.52404611E-04 -2.87472464E-05 -1.99164430E-04
  4.77437045E-04 -2.45250882E-04 -3.09037198E-05 -9.00567046E-05 -3.34631880E-05
  2.19269548E-05  4.72709919E-05 -8.19004363E-05  3.25436156E-01  2.69495057E-01
  0.00000000E+00 -2.56830844E-05 -1.34645952E-04  2.64729007E-03  0.00000000E+00
  1.93139079E-04  1.38625126E-04 -2.23157767E-04  0.00000000E+00 -6.91891374E-05
 -5.77876296E-05 -3.89065250E-04  0.00000000E+00  5.85426255E-04 -6.31224047E-05
 -1.80790292E-04  0.00000000E+00 -3.62593892E-05  9.43965059E-05  0.00000000E+00
  1.62347162E-01  1.34440246E-01 -7.01093213E-05 -1.46558807E-04 -6.71761281E-05
  1.32122549E-03 -1.38532808E-04 -4.72349370E-05  6.91530528E-05 -1.11053104E-04
  1.27711472E-04  1.52404611E-04 -2.87472464E-05 -1.99164430E-04 -4.77437045E-04
 -2.45250882E-04 -3.09037198E-05 -9.00567046E-05  3.34631880E-05  2.19269548E-05
  4.72709919E-05  8.19004363E-05 -1.62347162E-01 -1.34440246E-01  7.01093213E-05
 -1.46558807E-04  6.71761281E-05 -1.32122549E-03  1.38532808E-04 -4.72349370E-05
 -6.91530528E-05  1.11053104E-04 -1.27711472E-04  1.52404611E-04  2.87472464E-05
  1.99164430E-04  4.77437045E-04 -2.45250882E-04  3.09037198E-05  9.00567046E-05
 -3.34631880E-05  2.19269548E-05 -4.72709919E-05  8.19004363E-05 -3.25436156E-01
 -2.69495057E-01  0.00000000E+00 -2.56830844E-05  1.34645952E-04 -2.64729007E-03
  0.00000000E+00  1.93139079E-04 -1.38625126E-04  2.23157767E-04  0.00000000E+00