 Entering Gaussian System, Link 0=g09
 Initial command:
 /apps/software//g09/l1.exe /scratch/itamar/2480.cluster.abaxnet/Gau-30913.inp -scrdir=/scratch/itamar/2480.cluster.abaxnet/
 Entering Link 1 = /apps/software//g09/l1.exe PID=     30914.
  
 Copyright (c) 1988,1990,1992,1993,1995,1998,2003,2009, Gaussian, Inc.
                  All Rights Reserved.
  
 This is part of the Gaussian(R) 09 program.  It is based on
 the Gaussian(R) 03 system (copyright 2003, Gaussian, Inc.),
 the Gaussian(R) 98 system (copyright 1998, Gaussian, Inc.),
 the Gaussian(R) 94 system (copyright 1995, Gaussian, Inc.),
 the Gaussian 92(TM) system (copyright 1992, Gaussian, Inc.),
 the Gaussian 90(TM) system (copyright 1990, Gaussian, Inc.),
 the Gaussian 88(TM) system (copyright 1988, Gaussian, Inc.),
 the Gaussian 86(TM) system (copyright 1986, Carnegie Mellon
 University), and the Gaussian 82(TM) system (copyright 1983,
 Carnegie Mellon University). Gaussian is a federally registered
 trademark of Gaussian, Inc.
  
 This software contains proprietary and confidential information,
 including trade secrets, belonging to Gaussian, Inc.
  
 This software is provided under written license and may be
 used, copied, transmitted, or stored only in accord with that
 written license.
  
 The following legend is applicable only to US Government
 contracts under FAR:
  
                    RESTRICTED RIGHTS LEGEND
  
 Use, reproduction and disclosure by the US Government is
 subject to restrictions as set forth in subparagraphs (a)
 and (c) of the Commercial Computer Software - Restricted
 Rights clause in FAR 52.227-19.
  
 Gaussian, Inc.
 340 Quinnipiac St., Bldg. 40, Wallingford CT 06492
  
  
 ---------------------------------------------------------------
 Warning -- This program may not be used in any manner that
 competes with the business of Gaussian, Inc. or will provide
 assistance to any competitor of Gaussian, Inc.  The licensee
 of this program is prohibited from giving any competitor of
 Gaussian, Inc. access to this program.  By using this program,
 the user acknowledges that Gaussian, Inc. is engaged in the
 business of creating and licensing software in the field of
 computational chemistry and represents and warrants to the
 licensee that it is not a competitor of Gaussian, Inc. and that
 it will not use this program in any manner prohibited above.
 ---------------------------------------------------------------
  

 Cite this work as:
 Gaussian 09, Revision A.02,
 M. J. Frisch, G. W. Trucks, H. B. Schlegel, G. E. Scuseria, 
 M. A. Robb, J. R. Cheeseman, G. Scalmani, V. Barone, B. Mennucci, 
 G. A. Petersson, H. Nakatsuji, M. Caricato, X. Li, H. P. Hratchian, 
 A. F. Izmaylov, J. Bloino, G. Zheng, J. L. Sonnenberg, M. Hada, 
 M. Ehara, K. Toyota, R. Fukuda, J. Hasegawa, M. Ishida, T. Nakajima, 
 Y. Honda, O. Kitao, H. Nakai, T. Vreven, J. A. Montgomery, Jr., 
 J. E. Peralta, F. Ogliaro, M. Bearpark, J. J. Heyd, E. Brothers, 
 K. N. Kudin, V. N. Staroverov, R. Kobayashi, J. Normand, 
 K. Raghavachari, A. Rendell, J. C. Burant, S. S. Iyengar, J. Tomasi, 
 M. Cossi, N. Rega, J. M. Millam, M. Klene, J. E. Knox, J. B. Cross, 
 V. Bakken, C. Adamo, J. Jaramillo, R. Gomperts, R. E. Stratmann, 
 O. Yazyev, A. J. Austin, R. Cammi, C. Pomelli, J. W. Ochterski, 
 R. L. Martin, K. Morokuma, V. G. Zakrzewski, G. A. Voth, 
 P. Salvador, J. J. Dannenberg, S. Dapprich, A. D. Daniels, 
 O. Farkas, J. B. Foresman, J. V. Ortiz, J. Cioslowski, 
 and D. J. Fox, Gaussian, Inc., Wallingford CT, 2009.
 
 ******************************************
 Gaussian 09:  EM64L-G09RevA.02 11-Jun-2009
                 3-Dec-2021 
 ******************************************
 %Mem=3800MB
 %NProcShared=6
 Will use up to    6 processors via shared memory.
 %chk=/home/itamar/Aromaticity-test-set/T10-old-T11-heteroaromatic/CH2/ch2.chk
 -----------------------------
 #P MP2/6-311++G** DENSITY=MP2
 -----------------------------
 1/30=1,38=1/1;
 2/12=2,17=6,18=5,40=1/2;
 3/5=4,6=6,7=1111,11=9,16=1,25=1,30=1,71=1/1,2,3;
 4//1;
 5/5=2,38=5/2;
 8/6=4,10=2/1;
 9/15=1,16=-3/6;
 10/5=1,13=10/2;
 6/7=2,8=2,9=2,10=2,22=2/1;
 99/5=1,9=1/99;
 Leave Link    1 at Fri Dec  3 17:11:02 2021, MaxMem=  498073600 cpu:       0.2
 (Enter /apps/software//g09/l101.exe)
 ---
 CH2
 ---
 Symbolic Z-matrix:
 Charge =  0 Multiplicity = 1
 6                     0.        0.73412  -0.99016 
 6                     0.       -0.73412  -0.99016 
 6                     0.       -1.17932   0.28165 
 6                     0.        0.        1.21605 
 6                     0.        1.17932   0.28165 
 1                     0.        1.34789  -1.88185 
 1                     0.       -1.34789  -1.88185 
 1                     0.       -2.21046   0.60744 
 1                    -0.87715   0.        1.8773 
 1                     0.87715   0.        1.8773 
 1                     0.        2.21046   0.60744 
 
 NAtoms=     11 NQM=     11 NQMF=      0 NMic=      0 NMicF=      0 NTot=     11.
                    Isotopes and Nuclear Properties:
 (Nuclear quadrupole moments (NQMom) in fm**2, nuclear magnetic moments (NMagM)
  in nuclear magnetons)

  Atom         1           2           3           4           5           6           7           8           9          10
 IAtWgt=          12          12          12          12          12           1           1           1           1           1
 AtmWgt=  12.0000000  12.0000000  12.0000000  12.0000000  12.0000000   1.0078250   1.0078250   1.0078250   1.0078250   1.0078250
 NucSpn=           0           0           0           0           0           1           1           1           1           1
 AtZEff=   0.0000000   0.0000000   0.0000000   0.0000000   0.0000000   0.0000000   0.0000000   0.0000000   0.0000000   0.0000000
 NQMom=    0.0000000   0.0000000   0.0000000   0.0000000   0.0000000   0.0000000   0.0000000   0.0000000   0.0000000   0.0000000
 NMagM=    0.0000000   0.0000000   0.0000000   0.0000000   0.0000000   2.7928460   2.7928460   2.7928460   2.7928460   2.7928460

  Atom        11
 IAtWgt=           1
 AtmWgt=   1.0078250
 NucSpn=           1
 AtZEff=   0.0000000
 NQMom=    0.0000000
 NMagM=    2.7928460
 Leave Link  101 at Fri Dec  3 17:11:02 2021, MaxMem=  498073600 cpu:       0.2
 (Enter /apps/software//g09/l202.exe)
                          Input orientation:                          
 ---------------------------------------------------------------------
 Center     Atomic      Atomic             Coordinates (Angstroms)
 Number     Number       Type             X           Y           Z
 ---------------------------------------------------------------------
      1          6           0        0.000000    0.734115   -0.990161
      2          6           0        0.000000   -0.734115   -0.990161
      3          6           0        0.000000   -1.179318    0.281653
      4          6           0        0.000000    0.000000    1.216052
      5          6           0        0.000000    1.179318    0.281653
      6          1           0        0.000000    1.347888   -1.881848
      7          1           0        0.000000   -1.347888   -1.881848
      8          1           0        0.000000   -2.210462    0.607439
      9          1           0       -0.877146    0.000000    1.877297
     10          1           0        0.877146    0.000000    1.877297
     11          1           0        0.000000    2.210462    0.607439
 ---------------------------------------------------------------------
                    Distance matrix (angstroms):
                    1          2          3          4          5
     1  C    0.000000
     2  C    1.468230   0.000000
     3  C    2.297550   1.347485   0.000000
     4  C    2.325145   2.325145   1.504624   0.000000
     5  C    1.347485   2.297550   2.358636   1.504624   0.000000
     6  H    1.082508   2.264915   3.326786   3.378430   2.170058
     7  H    2.264915   1.082508   2.170058   3.378430   3.326786
     8  H    3.350054   2.175299   1.081385   2.292717   3.405399
     9  H    3.087171   3.087171   2.169391   1.098467   2.169391
    10  H    3.087171   3.087171   2.169391   1.098467   2.169391
    11  H    2.175299   3.350054   3.405399   2.292717   1.081385
                    6          7          8          9         10
     6  H    0.000000
     7  H    2.695776   0.000000
     8  H    4.342626   2.634499   0.000000
     9  H    4.088687   4.088687   2.695935   0.000000
    10  H    4.088687   4.088687   2.695935   1.754292   0.000000
    11  H    2.634499   4.342626   4.420924   2.695935   2.695935
                   11
    11  H    0.000000
 Stoichiometry    C5H6
 Framework group  C2V[C2(C),SGV(C4H4),SGV'(H2)]
 Deg. of freedom    10
 Full point group                 C2V     NOp   4
 Largest Abelian subgroup         C2V     NOp   4
 Largest concise Abelian subgroup C2V     NOp   4
                         Standard orientation:                         
 ---------------------------------------------------------------------
 Center     Atomic      Atomic             Coordinates (Angstroms)
 Number     Number       Type             X           Y           Z
 ---------------------------------------------------------------------
      1          6           0        0.000000    0.734115   -0.990161
      2          6           0        0.000000   -0.734115   -0.990161
      3          6           0        0.000000   -1.179318    0.281653
      4          6           0        0.000000    0.000000    1.216052
      5          6           0        0.000000    1.179318    0.281653
      6          1           0        0.000000    1.347888   -1.881848
      7          1           0        0.000000   -1.347888   -1.881848
      8          1           0        0.000000   -2.210462    0.607439
      9          1           0       -0.877146    0.000000    1.877297
     10          1           0        0.877146    0.000000    1.877297
     11          1           0        0.000000    2.210462    0.607439
 ---------------------------------------------------------------------
 Rotational constants (GHZ):      8.4661649      8.2343107      4.2840663
 Leave Link  202 at Fri Dec  3 17:11:02 2021, MaxMem=  498073600 cpu:       0.1
 (Enter /apps/software//g09/l301.exe)
 Standard basis: 6-311++G(d,p) (5D, 7F)
 Ernie: Thresh=  0.10000D-02 Tol=  0.10000D-05 Strict=F.
 There are    61 symmetry adapted basis functions of A1  symmetry.
 There are    16 symmetry adapted basis functions of A2  symmetry.
 There are    25 symmetry adapted basis functions of B1  symmetry.
 There are    50 symmetry adapted basis functions of B2  symmetry.
 Integral buffers will be    131072 words long.
 Raffenetti 1 integral format.
 Two-electron integral symmetry is turned on.
   152 basis functions,   234 primitive gaussians,   157 cartesian basis functions
    18 alpha electrons       18 beta electrons
       nuclear repulsion energy       156.6402699200 Hartrees.
 IExCor=    0 DFT=F Ex=HF Corr=None ExCW=0 ScaHFX=  1.000000
 ScaDFX=  1.000000  1.000000  1.000000  1.000000 ScalE2=  1.000000  1.000000
 IRadAn=      0 IRanWt=     -1 IRanGd=            0 ICorTp=0
 NAtoms=   11 NActive=   11 NUniq=    6 SFac= 2.52D+00 NAtFMM=   80 NAOKFM=F Big=F
 Leave Link  301 at Fri Dec  3 17:11:02 2021, MaxMem=  498073600 cpu:       0.2
 (Enter /apps/software//g09/l302.exe)
 NPDir=0 NMtPBC=     1 NCelOv=     1 NCel=       1 NClECP=     1 NCelD=      1
         NCelK=      1 NCelE2=     1 NClLst=     1 CellRange=     0.0.
 One-electron integrals computed using PRISM.
 One-electron integral symmetry used in STVInt
 NBasis=   152 RedAO= T  NBF=    61    16    25    50
 NBsUse=   152 1.00D-06 NBFU=    61    16    25    50
 Leave Link  302 at Fri Dec  3 17:11:02 2021, MaxMem=  498073600 cpu:       1.3
 (Enter /apps/software//g09/l303.exe)
 DipDrv:  MaxL=1.
 Leave Link  303 at Fri Dec  3 17:11:02 2021, MaxMem=  498073600 cpu:       0.2
 (Enter /apps/software//g09/l401.exe)
 Harris functional with IExCor=  205 diagonalized for initial guess.
 ExpMin= 3.60D-02 ExpMax= 4.56D+03 ExpMxC= 6.82D+02 IAcc=3 IRadAn=         0 AccDes= 0.00D+00
 HarFok:  IExCor=  205 AccDes= 0.00D+00 IRadAn=         0 IDoV= 1
 ScaDFX=  1.000000  1.000000  1.000000  1.000000
 FoFCou: FMM=F IPFlag=           0 FMFlag=      100000 FMFlg1=           0
         NFxFlg=           0 DoJE=T BraDBF=F KetDBF=T FulRan=T
         Omega=  0.000000  0.000000  1.000000  0.000000  0.000000 ICntrl=     500 IOpCl=  0
         NMat0=    1 NMatS0=    1 NMatT0=    0 NMatD0=    1 NMtDS0=    0 NMtDT0=    0
         I1Cent=           4 NGrid=           0.
 Petite list used in FoFCou.
 Harris En= -193.211567629090    
 Initial guess orbital symmetries:
       Occupied  (A1) (A1) (B2) (B2) (A1) (A1) (B2) (A1) (A1) (B2)
                 (A1) (B1) (B2) (A1) (B2) (A1) (B1) (A2)
       Virtual   (B1) (A2) (A1) (A1) (B2) (B1) (A1) (B2) (B2) (A1)
                 (B1) (A1) (A2) (B2) (A1) (A1) (B2) (A1) (B2) (A1)
                 (A1) (B1) (B1) (B2) (A2) (B1) (A1) (B2) (A1) (A1)
                 (B2) (B2) (B2) (A1) (B2) (A1) (B2) (A1) (B2) (A1)
                 (A1) (B1) (B2) (A1) (B2) (A2) (B1) (A1) (B1) (A2)
                 (B1) (A1) (B2) (A1) (B2) (A1) (A1) (B2) (B2) (A1)
                 (B2) (B2) (A1) (A2) (B1) (A1) (B1) (B2) (A2) (A1)
                 (B1) (A2) (A1) (A1) (B2) (B2) (A1) (A2) (B1) (A1)
                 (B1) (B2) (B1) (A1) (A2) (A1) (B2) (B1) (B2) (A2)
                 (B2) (A1) (B2) (B1) (A1) (B2) (A2) (A2) (A1) (B2)
                 (A1) (A1) (A1) (B1) (B2) (B1) (B1) (B2) (A1) (A2)
                 (A1) (B2) (B2) (A1) (B1) (A2) (B2) (A1) (A1) (B2)
                 (A1) (B2) (A1) (B1) (A1) (B2) (B2) (A1) (B2) (A1)
                 (B2) (A1) (B2) (A1)
 The electronic state of the initial guess is 1-A1.
 Leave Link  401 at Fri Dec  3 17:11:03 2021, MaxMem=  498073600 cpu:       2.0
 (Enter /apps/software//g09/l502.exe)
 Closed shell SCF:
 Requested convergence on RMS density matrix=1.00D-08 within 128 cycles.
 Requested convergence on MAX density matrix=1.00D-06.
 Requested convergence on             energy=1.00D-06.
 No special actions if energy rises.
 Using DIIS extrapolation, IDIIS=  1040.
 Integral symmetry usage will be decided dynamically.
 Keep R1 ints in memory in canonical form, NReq=78990344.
 IEnd=       94847 IEndB=       94847 NGot=   498073600 MDV=   421096766
 LenX=   421096766 LenY=   421071676
 Symmetry not used in FoFDir.
 MinBra= 0 MaxBra= 2 Meth= 1.
 IRaf=       0 NMat=   1 IRICut=       1 DoRegI=T DoRafI=F ISym2E= 0 JSym2E=0.

 Cycle   1  Pass 1  IDiag  1:
 E= -192.550655659805    
 DIIS: error= 5.22D-02 at cycle   1 NSaved=   1.
 NSaved= 1 IEnMin= 1 EnMin= -192.550655659805     IErMin= 1 ErrMin= 5.22D-02
 ErrMax= 5.22D-02 EMaxC= 1.00D-01 BMatC= 4.63D-01 BMatP= 4.63D-01
 IDIUse=3 WtCom= 4.78D-01 WtEn= 5.22D-01
 Coeff-Com:  0.100D+01
 Coeff-En:   0.100D+01
 Coeff:      0.100D+01
 Gap=     0.274 Goal=   None    Shift=    0.000
 GapD=    0.274 DampG=1.000 DampE=0.500 DampFc=0.5000 IDamp=-1.
 Damping current iteration by 5.00D-01
 RMSDP=4.77D-03 MaxDP=8.29D-02              OVMax= 1.78D-01

 Cycle   2  Pass 1  IDiag  1:
 E= -192.702050172444     Delta-E=       -0.151394512640 Rises=F Damp=T
 DIIS: error= 3.04D-02 at cycle   2 NSaved=   2.
 NSaved= 2 IEnMin= 2 EnMin= -192.702050172444     IErMin= 2 ErrMin= 3.04D-02
 ErrMax= 3.04D-02 EMaxC= 1.00D-01 BMatC= 9.31D-02 BMatP= 4.63D-01
 IDIUse=3 WtCom= 6.96D-01 WtEn= 3.04D-01
 Coeff-Com: -0.608D+00 0.161D+01
 Coeff-En:   0.000D+00 0.100D+01
 Coeff:     -0.423D+00 0.142D+01
 Gap=     0.357 Goal=   None    Shift=    0.000
 RMSDP=4.41D-03 MaxDP=1.50D-01 DE=-1.51D-01 OVMax= 6.09D-02

 Cycle   3  Pass 1  IDiag  1:
 E= -192.837078558630     Delta-E=       -0.135028386186 Rises=F Damp=F
 DIIS: error= 4.33D-03 at cycle   3 NSaved=   3.
 NSaved= 3 IEnMin= 3 EnMin= -192.837078558630     IErMin= 3 ErrMin= 4.33D-03
 ErrMax= 4.33D-03 EMaxC= 1.00D-01 BMatC= 1.27D-03 BMatP= 9.31D-02
 IDIUse=3 WtCom= 9.57D-01 WtEn= 4.33D-02
 Coeff-Com: -0.893D-01 0.136D+00 0.953D+00
 Coeff-En:   0.000D+00 0.000D+00 0.100D+01
 Coeff:     -0.854D-01 0.130D+00 0.955D+00
 Gap=     0.350 Goal=   None    Shift=    0.000
 RMSDP=5.00D-04 MaxDP=1.57D-02 DE=-1.35D-01 OVMax= 1.16D-02

 Cycle   4  Pass 1  IDiag  1:
 E= -192.838503040678     Delta-E=       -0.001424482048 Rises=F Damp=F
 DIIS: error= 7.21D-04 at cycle   4 NSaved=   4.
 NSaved= 4 IEnMin= 4 EnMin= -192.838503040678     IErMin= 4 ErrMin= 7.21D-04
 ErrMax= 7.21D-04 EMaxC= 1.00D-01 BMatC= 3.89D-05 BMatP= 1.27D-03
 IDIUse=3 WtCom= 9.93D-01 WtEn= 7.21D-03
 Coeff-Com:  0.125D-01-0.267D-01-0.667D-01 0.108D+01
 Coeff-En:   0.000D+00 0.000D+00 0.000D+00 0.100D+01
 Coeff:      0.124D-01-0.265D-01-0.662D-01 0.108D+01
 Gap=     0.349 Goal=   None    Shift=    0.000
 RMSDP=1.85D-04 MaxDP=2.48D-03 DE=-1.42D-03 OVMax= 3.86D-03

 Cycle   5  Pass 1  IDiag  1:
 E= -192.838607298079     Delta-E=       -0.000104257401 Rises=F Damp=F
 DIIS: error= 3.89D-04 at cycle   5 NSaved=   5.
 NSaved= 5 IEnMin= 5 EnMin= -192.838607298079     IErMin= 5 ErrMin= 3.89D-04
 ErrMax= 3.89D-04 EMaxC= 1.00D-01 BMatC= 4.31D-06 BMatP= 3.89D-05
 IDIUse=3 WtCom= 9.96D-01 WtEn= 3.89D-03
 Coeff-Com:  0.465D-02-0.676D-02-0.501D-01-0.163D+00 0.122D+01
 Coeff-En:   0.000D+00 0.000D+00 0.000D+00 0.000D+00 0.100D+01
 Coeff:      0.464D-02-0.674D-02-0.499D-01-0.163D+00 0.121D+01
 Gap=     0.350 Goal=   None    Shift=    0.000
 RMSDP=7.27D-05 MaxDP=1.20D-03 DE=-1.04D-04 OVMax= 2.84D-03

 Cycle   6  Pass 1  IDiag  1:
 E= -192.838622427137     Delta-E=       -0.000015129058 Rises=F Damp=F
 DIIS: error= 1.18D-04 at cycle   6 NSaved=   6.
 NSaved= 6 IEnMin= 6 EnMin= -192.838622427137     IErMin= 6 ErrMin= 1.18D-04
 ErrMax= 1.18D-04 EMaxC= 1.00D-01 BMatC= 7.49D-07 BMatP= 4.31D-06
 IDIUse=3 WtCom= 9.99D-01 WtEn= 1.18D-03
 Coeff-Com:  0.955D-03-0.970D-03-0.122D-01-0.120D+00 0.403D+00 0.729D+00
 Coeff-En:   0.000D+00 0.000D+00 0.000D+00 0.000D+00 0.000D+00 0.100D+01
 Coeff:      0.954D-03-0.969D-03-0.122D-01-0.120D+00 0.403D+00 0.730D+00
 Gap=     0.350 Goal=   None    Shift=    0.000
 RMSDP=1.61D-05 MaxDP=3.58D-04 DE=-1.51D-05 OVMax= 6.21D-04

 Cycle   7  Pass 1  IDiag  1:
 E= -192.838623718722     Delta-E=       -0.000001291586 Rises=F Damp=F
 DIIS: error= 3.82D-05 at cycle   7 NSaved=   7.
 NSaved= 7 IEnMin= 7 EnMin= -192.838623718722     IErMin= 7 ErrMin= 3.82D-05
 ErrMax= 3.82D-05 EMaxC= 1.00D-01 BMatC= 5.16D-08 BMatP= 7.49D-07
 IDIUse=1 WtCom= 1.00D+00 WtEn= 0.00D+00
 Coeff-Com: -0.851D-03 0.118D-02 0.104D-01 0.380D-01-0.240D+00-0.118D+00
 Coeff-Com:  0.131D+01
 Coeff:     -0.851D-03 0.118D-02 0.104D-01 0.380D-01-0.240D+00-0.118D+00
 Coeff:      0.131D+01
 Gap=     0.350 Goal=   None    Shift=    0.000
 RMSDP=1.26D-05 MaxDP=3.10D-04 DE=-1.29D-06 OVMax= 4.27D-04

 Cycle   8  Pass 1  IDiag  1:
 E= -192.838623952162     Delta-E=       -0.000000233439 Rises=F Damp=F
 DIIS: error= 5.27D-06 at cycle   8 NSaved=   8.
 NSaved= 8 IEnMin= 8 EnMin= -192.838623952162     IErMin= 8 ErrMin= 5.27D-06
 ErrMax= 5.27D-06 EMaxC= 1.00D-01 BMatC= 1.62D-09 BMatP= 5.16D-08
 IDIUse=1 WtCom= 1.00D+00 WtEn= 0.00D+00
 Coeff-Com:  0.757D-04-0.111D-03-0.127D-02-0.253D-02 0.282D-01-0.183D-01
 Coeff-Com: -0.233D+00 0.123D+01
 Coeff:      0.757D-04-0.111D-03-0.127D-02-0.253D-02 0.282D-01-0.183D-01
 Coeff:     -0.233D+00 0.123D+01
 Gap=     0.350 Goal=   None    Shift=    0.000
 RMSDP=1.67D-06 MaxDP=4.34D-05 DE=-2.33D-07 OVMax= 6.18D-05

 Cycle   9  Pass 1  IDiag  1:
 E= -192.838623958556     Delta-E=       -0.000000006394 Rises=F Damp=F
 DIIS: error= 1.18D-06 at cycle   9 NSaved=   9.
 NSaved= 9 IEnMin= 9 EnMin= -192.838623958556     IErMin= 9 ErrMin= 1.18D-06
 ErrMax= 1.18D-06 EMaxC= 1.00D-01 BMatC= 9.14D-11 BMatP= 1.62D-09
 IDIUse=1 WtCom= 1.00D+00 WtEn= 0.00D+00
 Coeff-Com:  0.446D-04-0.621D-04-0.615D-03-0.199D-02 0.145D-01 0.108D-02
 Coeff-Com: -0.852D-01 0.165D+00 0.908D+00
 Coeff:      0.446D-04-0.621D-04-0.615D-03-0.199D-02 0.145D-01 0.108D-02
 Coeff:     -0.852D-01 0.165D+00 0.908D+00
 Gap=     0.350 Goal=   None    Shift=    0.000
 RMSDP=2.18D-07 MaxDP=3.04D-06 DE=-6.39D-09 OVMax= 6.30D-06

 Cycle  10  Pass 1  IDiag  1:
 E= -192.838623958729     Delta-E=       -0.000000000173 Rises=F Damp=F
 DIIS: error= 2.56D-07 at cycle  10 NSaved=  10.
 NSaved=10 IEnMin=10 EnMin= -192.838623958729     IErMin=10 ErrMin= 2.56D-07
 ErrMax= 2.56D-07 EMaxC= 1.00D-01 BMatC= 6.63D-12 BMatP= 9.14D-11
 IDIUse=1 WtCom= 1.00D+00 WtEn= 0.00D+00
 Coeff-Com: -0.743D-05 0.111D-04 0.118D-03 0.293D-03-0.269D-02 0.811D-03
 Coeff-Com:  0.230D-01-0.115D+00-0.803D-02 0.110D+01
 Coeff:     -0.743D-05 0.111D-04 0.118D-03 0.293D-03-0.269D-02 0.811D-03
 Coeff:      0.230D-01-0.115D+00-0.803D-02 0.110D+01
 Gap=     0.350 Goal=   None    Shift=    0.000
 RMSDP=1.05D-07 MaxDP=1.76D-06 DE=-1.73D-10 OVMax= 1.78D-06

 Cycle  11  Pass 1  IDiag  1:
 E= -192.838623958744     Delta-E=       -0.000000000015 Rises=F Damp=F
 DIIS: error= 5.68D-08 at cycle  11 NSaved=  11.
 NSaved=11 IEnMin=11 EnMin= -192.838623958744     IErMin=11 ErrMin= 5.68D-08
 ErrMax= 5.68D-08 EMaxC= 1.00D-01 BMatC= 2.36D-13 BMatP= 6.63D-12
 IDIUse=1 WtCom= 1.00D+00 WtEn= 0.00D+00
 Coeff-Com: -0.726D-06 0.119D-05 0.132D-05 0.259D-04-0.782D-04-0.432D-03
 Coeff-Com:  0.133D-03 0.104D-01-0.255D-01-0.150D+00 0.117D+01
 Coeff:     -0.726D-06 0.119D-05 0.132D-05 0.259D-04-0.782D-04-0.432D-03
 Coeff:      0.133D-03 0.104D-01-0.255D-01-0.150D+00 0.117D+01
 Gap=     0.350 Goal=   None    Shift=    0.000
 RMSDP=1.85D-08 MaxDP=5.88D-07 DE=-1.49D-11 OVMax= 2.45D-07

 Cycle  12  Pass 1  IDiag  1:
 E= -192.838623958746     Delta-E=       -0.000000000001 Rises=F Damp=F
 DIIS: error= 1.92D-08 at cycle  12 NSaved=  12.
 NSaved=12 IEnMin=12 EnMin= -192.838623958746     IErMin=12 ErrMin= 1.92D-08
 ErrMax= 1.92D-08 EMaxC= 1.00D-01 BMatC= 2.48D-14 BMatP= 2.36D-13
 IDIUse=1 WtCom= 1.00D+00 WtEn= 0.00D+00
 Coeff-Com:  0.584D-06-0.897D-06-0.729D-05-0.242D-04 0.186D-03-0.444D-04
 Coeff-Com: -0.118D-02 0.341D-02 0.960D-02-0.283D-01-0.333D+00 0.135D+01
 Coeff:      0.584D-06-0.897D-06-0.729D-05-0.242D-04 0.186D-03-0.444D-04
 Coeff:     -0.118D-02 0.341D-02 0.960D-02-0.283D-01-0.333D+00 0.135D+01
 Gap=     0.350 Goal=   None    Shift=    0.000
 RMSDP=6.25D-09 MaxDP=1.50D-07 DE=-1.48D-12 OVMax= 1.12D-07

 SCF Done:  E(RHF) =  -192.838623959     A.U. after   12 cycles
             Convg  =    0.6251D-08             -V/T =  2.0012
 KE= 1.926074313664D+02 PE=-7.619309988702D+02 EE= 2.198446736250D+02
 Leave Link  502 at Fri Dec  3 17:11:08 2021, MaxMem=  498073600 cpu:      33.6
 (Enter /apps/software//g09/l801.exe)
 ExpMin= 3.60D-02 ExpMax= 4.56D+03 ExpMxC= 6.82D+02 IAcc=3 IRadAn=         5 AccDes= 0.00D+00
 HarFok:  IExCor=  205 AccDes= 0.00D+00 IRadAn=         5 IDoV=-2
 ScaDFX=  1.000000  1.000000  1.000000  1.000000
 Largest valence mixing into a core orbital is  1.46D-04
 Largest core mixing into a valence orbital is  4.39D-05
 Range of M.O.s used for correlation:     6   152
 NBasis=   152 NAE=    18 NBE=    18 NFC=     5 NFV=     0
 NROrb=    147 NOA=    13 NOB=    13 NVA=   134 NVB=   134

 **** Warning!!: The largest alpha MO coefficient is  0.12774410D+03

 Leave Link  801 at Fri Dec  3 17:11:09 2021, MaxMem=  498073600 cpu:       1.1
 (Enter /apps/software//g09/l906.exe)
 Frozen-core derivative calculation, NFC=   5 NFV=   0.
 FulOut=F Deriv=T AODrv=F NAtomX=    11
   MMem=         513  MDisk=          13 MDiskD=          13
  W3Min=      429552 MinDsk=      706103 NBas6D=         157
 NBas2D=       12616    NTT=       12403    LW2=     2040000
    MDV=   497769801 MDiskM=       43857 NBas2p=        6160
 Fully in-core method, ICMem=   166098443.
 IMap=   1   2   3   4   5   6   7   8   9  10  11  12  13  14  15  16  17  18
 JobTyp=1 Pass  1 fully in-core, NPsUse=  6.
 Compute canonical integrals, IntTyp=   4.
 Symmetry not used in FoFDir.
 MinBra= 0 MaxBra= 2 Meth= 1.
 IRaf=       0 NMat=   1 IRICut=       1 DoRegI=T DoRafI=F ISym2E= 0 JSym2E=0.
 Spin components of T(2) and E(2):
     alpha-alpha T2 =       0.3263499293D-01 E2=     -0.8756551980D-01
     alpha-beta  T2 =       0.1892725895D+00 E2=     -0.5274289266D+00
     beta-beta   T2 =       0.3263499293D-01 E2=     -0.8756551980D-01
 The integrals were generated   1 times.
 ANorm=    0.1120063648D+01
 E2 =    -0.7025599662D+00 EUMP2 =    -0.19354118392499D+03
 Leave Link  906 at Fri Dec  3 17:11:28 2021, MaxMem=  498073600 cpu:     115.8
 (Enter /apps/software//g09/l1002.exe)
 Minotr:  Closed shell wavefunction.
          Computing MP2/KS-MP2 derivatives.
          Using Z-Vector for PSCF gradient.
          Skipping F1 and S1 gradient terms here.
          Frozen-core window.
          Direct CPHF calculation.
          Differentiating once with respect to electric field.
                with respect to dipole field.
          Electric field/nuclear overlap derivatives assumed to be zero.
          Using symmetry in CPHF.
          Requested convergence is 1.0D-10 RMS, and 1.0D-09 maximum.
          NewPWx=F KeepS1=T KeepF1=T KeepIn=T MapXYZ=F SortEE=F KeepMc=T.
          MDV=     498073508 using IRadAn=       0.
          Keep R1 ints in memory in canonical form, NReq=77745122.
 Symmetry not used in FoFDir.
 MinBra= 0 MaxBra= 2 Meth= 1.
 IRaf=       0 NMat=   1 IRICut=       1 DoRegI=T DoRafI=F ISym2E= 0 JSym2E=0.
          Solving linear equations separately, MaxMat=       0.
          There are     1 degrees of freedom in the 1st order CPHF.  IDoFFX=0.
 LinEq1:  Iter=  0 NonCon=     1 RMS=3.83D-03 Max=6.93D-02
 AX will form     1 AO Fock derivatives at one time.
 LinEq1:  Iter=  1 NonCon=     1 RMS=9.56D-04 Max=1.20D-02
 LinEq1:  Iter=  2 NonCon=     1 RMS=3.48D-04 Max=6.16D-03
 LinEq1:  Iter=  3 NonCon=     1 RMS=7.60D-05 Max=1.29D-03
 LinEq1:  Iter=  4 NonCon=     1 RMS=1.60D-05 Max=3.53D-04
 LinEq1:  Iter=  5 NonCon=     1 RMS=6.87D-06 Max=1.65D-04
 LinEq1:  Iter=  6 NonCon=     1 RMS=1.61D-06 Max=2.24D-05
 LinEq1:  Iter=  7 NonCon=     1 RMS=3.61D-07 Max=4.55D-06
 LinEq1:  Iter=  8 NonCon=     1 RMS=1.00D-07 Max=1.37D-06
 LinEq1:  Iter=  9 NonCon=     1 RMS=1.45D-08 Max=1.27D-07
 LinEq1:  Iter= 10 NonCon=     1 RMS=2.65D-09 Max=2.67D-08
 LinEq1:  Iter= 11 NonCon=     1 RMS=3.41D-10 Max=3.14D-09
 LinEq1:  Iter= 12 NonCon=     0 RMS=4.99D-11 Max=4.24D-10
 Linear equations converged to 1.000D-10 1.000D-09 after    12 iterations.
 End of Minotr Frequency-dependent properties file   721 does not exist.
 End of Minotr Frequency-dependent properties file   722 does not exist.
 Leave Link 1002 at Fri Dec  3 17:11:32 2021, MaxMem=  498073600 cpu:      22.4
 (Enter /apps/software//g09/l601.exe)
 Copying SCF densities to generalized density rwf, IOpCl= 0 IROHF=0.

 **********************************************************************

            Population analysis using the MP2 density.

 **********************************************************************

 Orbital symmetries:
       Occupied  (A1) (A1) (B2) (A1) (B2) (A1) (B2) (A1) (A1) (B2)
                 (A1) (B1) (B2) (A1) (A1) (B2) (B1) (A2)
       Virtual   (A1) (B2) (A1) (B1) (B2) (A1) (B1) (A1) (B1) (B2)
                 (A2) (A1) (A2) (B2) (A1) (A1) (A1) (B2) (B1) (B2)
                 (A1) (B1) (B2) (A1) (B2) (A1) (A2) (B2) (B1) (A1)
                 (A1) (B2) (B2) (A1) (B2) (A1) (A1) (B2) (A1) (B2)
                 (A1) (B1) (B2) (A1) (B2) (A2) (B1) (A1) (B1) (A2)
                 (B1) (B2) (A1) (A1) (A1) (B2) (B2) (A1) (B2) (A1)
                 (B2) (B2) (A1) (A1) (A2) (B2) (B1) (B1) (A2) (A1)
                 (B1) (A2) (A1) (A1) (B2) (A2) (B1) (A1) (B2) (A1)
                 (B1) (B2) (B1) (A2) (A1) (B2) (A1) (B1) (B2) (B2)
                 (A2) (A1) (B2) (B1) (A1) (B2) (A2) (A1) (A2) (B2)
                 (A1) (A1) (A1) (B1) (B2) (A1) (B1) (B2) (B2) (A1)
                 (B2) (B1) (A1) (A2) (B1) (A1) (A2) (B2) (A1) (B2)
                 (A1) (B2) (A1) (B1) (A1) (B2) (B2) (A1) (B2) (A1)
                 (B2) (A1) (B2) (A1)
 The electronic state is 1-A1.
 Alpha  occ. eigenvalues --  -11.23265 -11.23003 -11.22949 -11.22802 -11.22784
 Alpha  occ. eigenvalues --   -1.15188  -0.96545  -0.95558  -0.75613  -0.72748
 Alpha  occ. eigenvalues --   -0.69651  -0.59203  -0.56256  -0.52913  -0.50845
 Alpha  occ. eigenvalues --   -0.50310  -0.41289  -0.30789
 Alpha virt. eigenvalues --    0.04211   0.05064   0.05257   0.07062   0.07158
 Alpha virt. eigenvalues --    0.07722   0.10326   0.13215   0.14521   0.14885
 Alpha virt. eigenvalues --    0.15118   0.16007   0.16255   0.18520   0.19014
 Alpha virt. eigenvalues --    0.19283   0.20346   0.20647   0.20675   0.21043
 Alpha virt. eigenvalues --    0.21088   0.22615   0.23279   0.23463   0.26203
 Alpha virt. eigenvalues --    0.27454   0.28312   0.28570   0.33932   0.35190
 Alpha virt. eigenvalues --    0.38985   0.39002   0.42024   0.43125   0.43789
 Alpha virt. eigenvalues --    0.46291   0.53584   0.55678   0.62322   0.63245
 Alpha virt. eigenvalues --    0.63691   0.66730   0.71133   0.74086   0.74793
 Alpha virt. eigenvalues --    0.75132   0.75227   0.80710   0.82316   0.84014
 Alpha virt. eigenvalues --    0.85973   0.88115   0.89524   0.94192   0.98076
 Alpha virt. eigenvalues --    0.98793   1.00077   1.00614   1.01598   1.03412
 Alpha virt. eigenvalues --    1.09840   1.11468   1.14140   1.21029   1.22020
 Alpha virt. eigenvalues --    1.22857   1.26143   1.33565   1.37719   1.46714
 Alpha virt. eigenvalues --    1.66007   1.68622   1.73129   1.81977   1.82721
 Alpha virt. eigenvalues --    1.82855   1.83907   1.84020   1.84899   1.91328
 Alpha virt. eigenvalues --    1.93793   1.99004   2.01808   2.10063   2.11230
 Alpha virt. eigenvalues --    2.13391   2.14585   2.18784   2.19823   2.24269
 Alpha virt. eigenvalues --    2.24638   2.27611   2.33773   2.41695   2.46980
 Alpha virt. eigenvalues --    2.55970   2.58571   2.63925   2.64550   2.74095
 Alpha virt. eigenvalues --    2.79001   2.80825   2.88476   2.90694   2.97487
 Alpha virt. eigenvalues --    2.98082   2.98090   3.04280   3.05821   3.06441
 Alpha virt. eigenvalues --    3.10429   3.12005   3.17920   3.21620   3.36173
 Alpha virt. eigenvalues --    3.39106   3.42500   3.47140   3.60509   3.73084
 Alpha virt. eigenvalues --    3.78483   3.90762   3.92954   4.16596   4.46076
 Alpha virt. eigenvalues --    4.46772   4.49993   4.56863   5.01554  24.83715
 Alpha virt. eigenvalues --   24.98294  25.06650  25.38678  25.41758
          Condensed to atoms (all electrons):
              1          2          3          4          5          6
     1  C    7.414770  -1.597126   0.873206   0.443029  -1.169088   0.514687
     2  C   -1.597126   7.414770  -1.169088   0.443029   0.873206  -0.151758
     3  C    0.873206  -1.169088   6.966804  -1.011308  -0.073478   0.037066
     4  C    0.443029   0.443029  -1.011308   7.301167  -1.011308   0.052820
     5  C   -1.169088   0.873206  -0.073478  -1.011308   6.966804  -0.160001
     6  H    0.514687  -0.151758   0.037066   0.052820  -0.160001   0.551245
     7  H   -0.151758   0.514687  -0.160001   0.052820   0.037066  -0.008257
     8  H    0.031122  -0.139013   0.494322  -0.139690   0.032187   0.000065
     9  H    0.006691   0.006691  -0.044507   0.401078  -0.044507  -0.000757
    10  H    0.006691   0.006691  -0.044507   0.401078  -0.044507  -0.000757
    11  H   -0.139013   0.031122   0.032187  -0.139690   0.494322  -0.013413
              7          8          9         10         11
     1  C   -0.151758   0.031122   0.006691   0.006691  -0.139013
     2  C    0.514687  -0.139013   0.006691   0.006691   0.031122
     3  C   -0.160001   0.494322  -0.044507  -0.044507   0.032187
     4  C    0.052820  -0.139690   0.401078   0.401078  -0.139690
     5  C    0.037066   0.032187  -0.044507  -0.044507   0.494322
     6  H   -0.008257   0.000065  -0.000757  -0.000757  -0.013413
     7  H    0.551245  -0.013413  -0.000757  -0.000757   0.000065
     8  H   -0.013413   0.545407  -0.001449  -0.001449   0.001739
     9  H   -0.000757  -0.001449   0.585818  -0.068037  -0.001449
    10  H   -0.000757  -0.001449  -0.068037   0.585818  -0.001449
    11  H    0.000065   0.001739  -0.001449  -0.001449   0.545407
 Mulliken atomic charges:
              1
     1  C   -0.233210
     2  C   -0.233210
     3  C    0.099305
     4  C   -0.793026
     5  C    0.099305
     6  H    0.179060
     7  H    0.179060
     8  H    0.190172
     9  H    0.161187
    10  H    0.161187
    11  H    0.190172
 Sum of Mulliken atomic charges =   0.00000
 Mulliken charges with hydrogens summed into heavy atoms:
              1
     1  C   -0.054150
     2  C   -0.054150
     3  C    0.289477
     4  C   -0.470652
     5  C    0.289477
 Sum of Mulliken charges with hydrogens summed into heavy atoms =   0.00000
 Electronic spatial extent (au):  <R**2>=            334.0712
 Charge=              0.0000 electrons
 Dipole moment (field-independent basis, Debye):
    X=              0.0000    Y=              0.0000    Z=              0.4406  Tot=              0.4406
 Quadrupole moment (field-independent basis, Debye-Ang):
   XX=            -33.8600   YY=            -29.5122   ZZ=            -27.8378
   XY=              0.0000   XZ=              0.0000   YZ=              0.0000
 Traceless Quadrupole moment (field-independent basis, Debye-Ang):
   XX=             -3.4567   YY=              0.8911   ZZ=              2.5655
   XY=              0.0000   XZ=              0.0000   YZ=              0.0000
 Octapole moment (field-independent basis, Debye-Ang**2):
  XXX=              0.0000  YYY=              0.0000  ZZZ=             -2.2975  XYY=              0.0000
  XXY=              0.0000  XXZ=              2.9010  XZZ=              0.0000  YZZ=              0.0000
  YYZ=              0.3564  XYZ=              0.0000
 Hexadecapole moment (field-independent basis, Debye-Ang**3):
 XXXX=            -49.1675 YYYY=           -202.2178 ZZZZ=           -203.8549 XXXY=              0.0000
 XXXZ=              0.0000 YYYX=              0.0000 YYYZ=              0.0000 ZZZX=              0.0000
 ZZZY=              0.0000 XXYY=            -51.1792 XXZZ=            -43.1930 YYZZ=            -66.8883
 XXYZ=              0.0000 YYXZ=              0.0000 ZZXY=              0.0000
 N-N= 1.566402699200D+02 E-N=-7.625682092152D+02  KE= 1.934393640470D+02
 Symmetry A1   KE= 1.118996998530D+02
 Symmetry A2   KE= 2.325565013426D+00
 Symmetry B1   KE= 3.983237626180D+00
 Symmetry B2   KE= 7.523086155434D+01
 No NMR shielding tensors so no spin-rotation constants.
 Leave Link  601 at Fri Dec  3 17:11:32 2021, MaxMem=  498073600 cpu:       1.8
 (Enter /apps/software//g09/l9999.exe)
 1\1\GINC-DLT06\SP\RMP2-FC\6-311++G(d,p)\C5H6\ITAMAR\03-Dec-2021\0\\#P 
 MP2/6-311++G** DENSITY=MP2\\CH2\\0,1\C,0,0.,0.734115,-0.990161\C,0,0.,
 -0.734115,-0.990161\C,0,0.,-1.179318,0.281653\C,0,0.,0.,1.216052\C,0,0
 .,1.179318,0.281653\H,0,0.,1.347888,-1.881848\H,0,0.,-1.347888,-1.8818
 48\H,0,0.,-2.210462,0.607439\H,0,-0.877146,0.,1.877297\H,0,0.877146,0.
 ,1.877297\H,0,0.,2.210462,0.607439\\Version=EM64L-G09RevA.02\State=1-A
 1\HF=-192.838624\MP2=-193.5411839\RMSD=6.251e-09\Dipole=0.,0.,0.173334
 6\Quadrupole=-2.5699596,0.6625362,1.9074234,0.,0.,0.\PG=C02V [C2(C1),S
 GV(C4H4),SGV'(H2)]\\@


 NOTHING RESEMBLES A NEW PHENOMENON AS MUCH AS A MISTAKE.

                               -- ENRICO FERMI (?)
 Job cpu time:  0 days  0 hours  2 minutes 60.0 seconds.
 File lengths (MBytes):  RWF=     11 Int=      0 D2E=      0 Chk=      3 Scr=      1
 Normal termination of Gaussian 09 at Fri Dec  3 17:11:32 2021.
