Hepta-NH                                                                
SP        RMP2-FC                                                     6-311++G(d,p)       
Number of atoms                            I               15
Info1-9                                    I   N=           9
          28          24           0           0           0         110
           1           2           1
Charge                                     I                0
Multiplicity                               I                1
Number of electrons                        I               56
Number of alpha electrons                  I               28
Number of beta electrons                   I               28
Number of basis functions                  I              225
Number of independent functions            I              225
Number of point charges in /Mol/           I                0
Number of translation vectors              I                0
Atomic numbers                             I   N=          15
           6           6           6           6           6           6
           6           1           1           1           1           1
           1           7           1
Nuclear charges                            R   N=          15
  6.00000000E+00  6.00000000E+00  6.00000000E+00  6.00000000E+00  6.00000000E+00
  6.00000000E+00  6.00000000E+00  1.00000000E+00  1.00000000E+00  1.00000000E+00
  1.00000000E+00  1.00000000E+00  1.00000000E+00  7.00000000E+00  1.00000000E+00
Current cartesian coordinates              R   N=          45
  1.30969359E+00 -3.51740205E+00  0.00000000E+00  2.96998619E+00 -1.36177067E+00
  0.00000000E+00 -1.25311897E+00 -3.53561712E+00  0.00000000E+00 -2.93324235E+00
 -1.39650950E+00  0.00000000E+00 -2.41820694E+00  1.11098700E+00  0.00000000E+00
  1.47093412E-16  2.47591351E+00  0.00000000E+00  2.42867414E+00  1.13915715E+00
  0.00000000E+00 -4.04946200E+00  2.36223326E+00  0.00000000E+00  4.01233456E+00
  2.44262220E+00  0.00000000E+00  4.96881944E+00 -1.83005803E+00  0.00000000E+00
  2.24711114E+00 -5.34256191E+00  0.00000000E+00 -2.17097218E+00 -5.37004798E+00
  0.00000000E+00 -4.92798813E+00 -1.88469001E+00  0.00000000E+00  1.32552950E-01
  4.91854894E+00  0.00000000E+00 -1.63043870E+00  5.70409865E+00  0.00000000E+00
Force Field                                I                0
Int Atom Types                             I   N=          15
           0           0           0           0           0           0
           0           0           0           0           0           0
           0           0           0
MM charges                                 R   N=          15
  0.00000000E+00  0.00000000E+00  0.00000000E+00  0.00000000E+00  0.00000000E+00
  0.00000000E+00  0.00000000E+00  0.00000000E+00  0.00000000E+00  0.00000000E+00
  0.00000000E+00  0.00000000E+00  0.00000000E+00  0.00000000E+00  0.00000000E+00
Integer atomic weights                     I   N=          15
          12          12          12          12          12          12
          12           1           1           1           1           1
           1          14           1
Real atomic weights                        R   N=          15
  1.20000000E+01  1.20000000E+01  1.20000000E+01  1.20000000E+01  1.20000000E+01
  1.20000000E+01  1.20000000E+01  1.00782504E+00  1.00782504E+00  1.00782504E+00
  1.00782504E+00  1.00782504E+00  1.00782504E+00  1.40030740E+01  1.00782504E+00
Atom fragment info                         I   N=          15
           0           0           0           0           0           0
           0           0           0           0           0           0
           0           0           0
Atom residue num                           I   N=          15
           0           0           0           0           0           0
           0           0           0           0           0           0
           0           0           0
Nuclear spins                              I   N=          15
           0           0           0           0           0           0
           0           1           1           1           1           1
           1           2           1
Nuclear ZEff                               R   N=          15
 -3.60000000E+00 -3.60000000E+00 -3.60000000E+00 -3.60000000E+00 -3.60000000E+00
 -3.60000000E+00 -3.60000000E+00 -1.00000000E+00 -1.00000000E+00 -1.00000000E+00
 -1.00000000E+00 -1.00000000E+00 -1.00000000E+00 -4.55000000E+00 -1.00000000E+00
Nuclear QMom                               R   N=          15
  0.00000000E+00  0.00000000E+00  0.00000000E+00  0.00000000E+00  0.00000000E+00
  0.00000000E+00  0.00000000E+00  0.00000000E+00  0.00000000E+00  0.00000000E+00
  0.00000000E+00  0.00000000E+00  0.00000000E+00  2.04400000E+00  0.00000000E+00
Nuclear GFac                               R   N=          15
  0.00000000E+00  0.00000000E+00  0.00000000E+00  0.00000000E+00  0.00000000E+00
  0.00000000E+00  0.00000000E+00  2.79284600E+00  2.79284600E+00  2.79284600E+00
  2.79284600E+00  2.79284600E+00  2.79284600E+00  4.03761000E-01  2.79284600E+00
MicOpt                                     I   N=          15
          -1          -1          -1          -1          -1          -1
          -1          -1          -1          -1          -1          -1
          -1          -1          -1
Number of contracted shells                I               83
Number of primitive shells                 I              153
Pure/Cartesian d shells                    I                0
Pure/Cartesian f shells                    I                0
Highest angular momentum                   I                2
Largest degree of contraction              I                6
Shell types                                I   N=          83
           0          -1          -1          -1          -1          -2
           0          -1          -1          -1          -1          -2
           0          -1          -1          -1          -1          -2
           0          -1          -1          -1          -1          -2
           0          -1          -1          -1          -1          -2
           0          -1          -1          -1          -1          -2
           0          -1          -1          -1          -1          -2
           0           0           0           0           1           0
           0           0           0           1           0           0
           0           0           1           0           0           0
           0           1           0           0           0           0
           1           0           0           0           0           1
           0          -1          -1          -1          -1          -2
           0           0           0           0           1
Number of primitives per shell             I   N=          83
           6           3           1           1           1           1
           6           3           1           1           1           1
           6           3           1           1           1           1
           6           3           1           1           1           1
           6           3           1           1           1           1
           6           3           1           1           1           1
           6           3           1           1           1           1
           3           1           1           1           1           3
           1           1           1           1           3           1
           1           1           1           3           1           1
           1           1           3           1           1           1
           1           3           1           1           1           1
           6           3           1           1           1           1
           3           1           1           1           1
Shell to atom map                          I   N=          83
           1           1           1           1           1           1
           2           2           2           2           2           2
           3           3           3           3           3           3
           4           4           4           4           4           4
           5           5           5           5           5           5
           6           6           6           6           6           6
           7           7           7           7           7           7
           8           8           8           8           8           9
           9           9           9           9          10          10
          10          10          10          11          11          11
          11          11          12          12          12          12
          12          13          13          13          13          13
          14          14          14          14          14          14
          15          15          15          15          15
Primitive exponents                        R   N=         153
  4.56324000E+03  6.82024000E+02  1.54973000E+02  4.44553000E+01  1.30290000E+01
  1.82773000E+00  2.09642000E+01  4.80331000E+00  1.45933000E+00  4.83456000E-01
  1.45585000E-01  4.38000000E-02  6.26000000E-01  4.56324000E+03  6.82024000E+02
  1.54973000E+02  4.44553000E+01  1.30290000E+01  1.82773000E+00  2.09642000E+01
  4.80331000E+00  1.45933000E+00  4.83456000E-01  1.45585000E-01  4.38000000E-02
  6.26000000E-01  4.56324000E+03  6.82024000E+02  1.54973000E+02  4.44553000E+01
  1.30290000E+01  1.82773000E+00  2.09642000E+01  4.80331000E+00  1.45933000E+00
  4.83456000E-01  1.45585000E-01  4.38000000E-02  6.26000000E-01  4.56324000E+03
  6.82024000E+02  1.54973000E+02  4.44553000E+01  1.30290000E+01  1.82773000E+00
  2.09642000E+01  4.80331000E+00  1.45933000E+00  4.83456000E-01  1.45585000E-01
  4.38000000E-02  6.26000000E-01  4.56324000E+03  6.82024000E+02  1.54973000E+02
  4.44553000E+01  1.30290000E+01  1.82773000E+00  2.09642000E+01  4.80331000E+00
  1.45933000E+00  4.83456000E-01  1.45585000E-01  4.38000000E-02  6.26000000E-01
  4.56324000E+03  6.82024000E+02  1.54973000E+02  4.44553000E+01  1.30290000E+01
  1.82773000E+00  2.09642000E+01  4.80331000E+00  1.45933000E+00  4.83456000E-01
  1.45585000E-01  4.38000000E-02  6.26000000E-01  4.56324000E+03  6.82024000E+02
  1.54973000E+02  4.44553000E+01  1.30290000E+01  1.82773000E+00  2.09642000E+01
  4.80331000E+00  1.45933000E+00  4.83456000E-01  1.45585000E-01  4.38000000E-02
  6.26000000E-01  3.38650000E+01  5.09479000E+00  1.15879000E+00  3.25840000E-01
  1.02741000E-01  3.60000000E-02  7.50000000E-01  3.38650000E+01  5.09479000E+00
  1.15879000E+00  3.25840000E-01  1.02741000E-01  3.60000000E-02  7.50000000E-01
  3.38650000E+01  5.09479000E+00  1.15879000E+00  3.25840000E-01  1.02741000E-01
  3.60000000E-02  7.50000000E-01  3.38650000E+01  5.09479000E+00  1.15879000E+00
  3.25840000E-01  1.02741000E-01  3.60000000E-02  7.50000000E-01  3.38650000E+01
  5.09479000E+00  1.15879000E+00  3.25840000E-01  1.02741000E-01  3.60000000E-02
  7.50000000E-01  3.38650000E+01  5.09479000E+00  1.15879000E+00  3.25840000E-01
  1.02741000E-01  3.60000000E-02  7.50000000E-01  6.29348000E+03  9.49044000E+02
  2.18776000E+02  6.36916000E+01  1.88282000E+01  2.72023000E+00  3.06331000E+01
  7.02614000E+00  2.11205000E+00  6.84009000E-01  2.00878000E-01  6.39000000E-02
  9.13000000E-01  3.38650000E+01  5.09479000E+00  1.15879000E+00  3.25840000E-01
  1.02741000E-01  3.60000000E-02  7.50000000E-01
Contraction coefficients                   R   N=         153
  1.96665025E-03  1.52306019E-02  7.61269097E-02  2.60801033E-01  6.16462078E-01
  2.21006028E-01  1.14660081E-01  9.19999648E-01 -3.03068213E-03  1.00000000E+00
  1.00000000E+00  1.00000000E+00  1.00000000E+00  1.96665025E-03  1.52306019E-02
  7.61269097E-02  2.60801033E-01  6.16462078E-01  2.21006028E-01  1.14660081E-01
  9.19999648E-01 -3.03068213E-03  1.00000000E+00  1.00000000E+00  1.00000000E+00
  1.00000000E+00  1.96665025E-03  1.52306019E-02  7.61269097E-02  2.60801033E-01
  6.16462078E-01  2.21006028E-01  1.14660081E-01  9.19999648E-01 -3.03068213E-03
  1.00000000E+00  1.00000000E+00  1.00000000E+00  1.00000000E+00  1.96665025E-03
  1.52306019E-02  7.61269097E-02  2.60801033E-01  6.16462078E-01  2.21006028E-01
  1.14660081E-01  9.19999648E-01 -3.03068213E-03  1.00000000E+00  1.00000000E+00
  1.00000000E+00  1.00000000E+00  1.96665025E-03  1.52306019E-02  7.61269097E-02
  2.60801033E-01  6.16462078E-01  2.21006028E-01  1.14660081E-01  9.19999648E-01
 -3.03068213E-03  1.00000000E+00  1.00000000E+00  1.00000000E+00  1.00000000E+00
  1.96665025E-03  1.52306019E-02  7.61269097E-02  2.60801033E-01  6.16462078E-01
  2.21006028E-01  1.14660081E-01  9.19999648E-01 -3.03068213E-03  1.00000000E+00
  1.00000000E+00  1.00000000E+00  1.00000000E+00  1.96665025E-03  1.52306019E-02
  7.61269097E-02  2.60801033E-01  6.16462078E-01  2.21006028E-01  1.14660081E-01
  9.19999648E-01 -3.03068213E-03  1.00000000E+00  1.00000000E+00  1.00000000E+00
  1.00000000E+00  2.54938145E-02  1.90373109E-01  8.52161486E-01  1.00000000E+00
  1.00000000E+00  1.00000000E+00  1.00000000E+00  2.54938145E-02  1.90373109E-01
  8.52161486E-01  1.00000000E+00  1.00000000E+00  1.00000000E+00  1.00000000E+00
  2.54938145E-02  1.90373109E-01  8.52161486E-01  1.00000000E+00  1.00000000E+00
  1.00000000E+00  1.00000000E+00  2.54938145E-02  1.90373109E-01  8.52161486E-01
  1.00000000E+00  1.00000000E+00  1.00000000E+00  1.00000000E+00  2.54938145E-02
  1.90373109E-01  8.52161486E-01  1.00000000E+00  1.00000000E+00  1.00000000E+00
  1.00000000E+00  2.54938145E-02  1.90373109E-01  8.52161486E-01  1.00000000E+00
  1.00000000E+00  1.00000000E+00  1.00000000E+00  1.96978815E-03  1.49612859E-02
  7.35005308E-02  2.48936766E-01  6.02459433E-01  2.56201759E-01  1.11906080E-01
  9.21666655E-01 -2.56919183E-03  1.00000000E+00  1.00000000E+00  1.00000000E+00
  1.00000000E+00  2.54938145E-02  1.90373109E-01  8.52161486E-01  1.00000000E+00
  1.00000000E+00  1.00000000E+00  1.00000000E+00
P(S=P) Contraction coefficients            R   N=         153
  0.00000000E+00  0.00000000E+00  0.00000000E+00  0.00000000E+00  0.00000000E+00
  0.00000000E+00  4.02486927E-02  2.37593957E-01  8.15853851E-01  1.00000000E+00
  1.00000000E+00  1.00000000E+00  0.00000000E+00  0.00000000E+00  0.00000000E+00
  0.00000000E+00  0.00000000E+00  0.00000000E+00  0.00000000E+00  4.02486927E-02
  2.37593957E-01  8.15853851E-01  1.00000000E+00  1.00000000E+00  1.00000000E+00
  0.00000000E+00  0.00000000E+00  0.00000000E+00  0.00000000E+00  0.00000000E+00
  0.00000000E+00  0.00000000E+00  4.02486927E-02  2.37593957E-01  8.15853851E-01
  1.00000000E+00  1.00000000E+00  1.00000000E+00  0.00000000E+00  0.00000000E+00
  0.00000000E+00  0.00000000E+00  0.00000000E+00  0.00000000E+00  0.00000000E+00
  4.02486927E-02  2.37593957E-01  8.15853851E-01  1.00000000E+00  1.00000000E+00
  1.00000000E+00  0.00000000E+00  0.00000000E+00  0.00000000E+00  0.00000000E+00
  0.00000000E+00  0.00000000E+00  0.00000000E+00  4.02486927E-02  2.37593957E-01
  8.15853851E-01  1.00000000E+00  1.00000000E+00  1.00000000E+00  0.00000000E+00
  0.00000000E+00  0.00000000E+00  0.00000000E+00  0.00000000E+00  0.00000000E+00
  0.00000000E+00  4.02486927E-02  2.37593957E-01  8.15853851E-01  1.00000000E+00
  1.00000000E+00  1.00000000E+00  0.00000000E+00  0.00000000E+00  0.00000000E+00
  0.00000000E+00  0.00000000E+00  0.00000000E+00  0.00000000E+00  4.02486927E-02
  2.37593957E-01  8.15853851E-01  1.00000000E+00  1.00000000E+00  1.00000000E+00
  0.00000000E+00  0.00000000E+00  0.00000000E+00  0.00000000E+00  0.00000000E+00
  0.00000000E+00  0.00000000E+00  0.00000000E+00  0.00000000E+00  0.00000000E+00
  0.00000000E+00  0.00000000E+00  0.00000000E+00  0.00000000E+00  0.00000000E+00
  0.00000000E+00  0.00000000E+00  0.00000000E+00  0.00000000E+00  0.00000000E+00
  0.00000000E+00  0.00000000E+00  0.00000000E+00  0.00000000E+00  0.00000000E+00
  0.00000000E+00  0.00000000E+00  0.00000000E+00  0.00000000E+00  0.00000000E+00
  0.00000000E+00  0.00000000E+00  0.00000000E+00  0.00000000E+00  0.00000000E+00
  0.00000000E+00  0.00000000E+00  0.00000000E+00  0.00000000E+00  0.00000000E+00
  0.00000000E+00  0.00000000E+00  0.00000000E+00  0.00000000E+00  0.00000000E+00
  0.00000000E+00  0.00000000E+00  0.00000000E+00  0.00000000E+00  3.83119186E-02
  2.37403116E-01  8.17592398E-01  1.00000000E+00  1.00000000E+00  1.00000000E+00
  0.00000000E+00  0.00000000E+00  0.00000000E+00  0.00000000E+00  0.00000000E+00
  0.00000000E+00  0.00000000E+00  0.00000000E+00
Coordinates of each shell                  R   N=         249
  1.30969408E+00 -3.51740174E+00  0.00000000E+00  1.30969408E+00 -3.51740174E+00
  0.00000000E+00  1.30969408E+00 -3.51740174E+00  0.00000000E+00  1.30969408E+00
 -3.51740174E+00  0.00000000E+00  1.30969408E+00 -3.51740174E+00  0.00000000E+00
  1.30969408E+00 -3.51740174E+00  0.00000000E+00  2.96998650E+00 -1.36177022E+00
  0.00000000E+00  2.96998650E+00 -1.36177022E+00  0.00000000E+00  2.96998650E+00
 -1.36177022E+00  0.00000000E+00  2.96998650E+00 -1.36177022E+00  0.00000000E+00
  2.96998650E+00 -1.36177022E+00  0.00000000E+00  2.96998650E+00 -1.36177022E+00
  0.00000000E+00 -1.25311848E+00 -3.53561702E+00  0.00000000E+00 -1.25311848E+00
 -3.53561702E+00  0.00000000E+00 -1.25311848E+00 -3.53561702E+00  0.00000000E+00
 -1.25311848E+00 -3.53561702E+00  0.00000000E+00 -1.25311848E+00 -3.53561702E+00
  0.00000000E+00 -1.25311848E+00 -3.53561702E+00  0.00000000E+00 -2.93324204E+00
 -1.39650954E+00  0.00000000E+00 -2.93324204E+00 -1.39650954E+00  0.00000000E+00
 -2.93324204E+00 -1.39650954E+00  0.00000000E+00 -2.93324204E+00 -1.39650954E+00
  0.00000000E+00 -2.93324204E+00 -1.39650954E+00  0.00000000E+00 -2.93324204E+00
 -1.39650954E+00  0.00000000E+00 -2.41820683E+00  1.11098701E+00  0.00000000E+00
 -2.41820683E+00  1.11098701E+00  0.00000000E+00 -2.41820683E+00  1.11098701E+00
  0.00000000E+00 -2.41820683E+00  1.11098701E+00  0.00000000E+00 -2.41820683E+00
  1.11098701E+00  0.00000000E+00 -2.41820683E+00  1.11098701E+00  0.00000000E+00
 -3.27684451E-23  2.47591371E+00  0.00000000E+00 -3.27684451E-23  2.47591371E+00
  0.00000000E+00 -3.27684451E-23  2.47591371E+00  0.00000000E+00 -3.27684451E-23
  2.47591371E+00  0.00000000E+00 -3.27684451E-23  2.47591371E+00  0.00000000E+00
 -3.27684451E-23  2.47591371E+00  0.00000000E+00  2.42867425E+00  1.13915755E+00
  0.00000000E+00  2.42867425E+00  1.13915755E+00  0.00000000E+00  2.42867425E+00
  1.13915755E+00  0.00000000E+00  2.42867425E+00  1.13915755E+00  0.00000000E+00
  2.42867425E+00  1.13915755E+00  0.00000000E+00  2.42867425E+00  1.13915755E+00
  0.00000000E+00 -4.04946200E+00  2.36223313E+00  0.00000000E+00 -4.04946200E+00
  2.36223313E+00  0.00000000E+00 -4.04946200E+00  2.36223313E+00  0.00000000E+00
 -4.04946200E+00  2.36223313E+00  0.00000000E+00 -4.04946200E+00  2.36223313E+00
  0.00000000E+00  4.01233456E+00  2.44262274E+00  0.00000000E+00  4.01233456E+00
  2.44262274E+00  0.00000000E+00  4.01233456E+00  2.44262274E+00  0.00000000E+00
  4.01233456E+00  2.44262274E+00  0.00000000E+00  4.01233456E+00  2.44262274E+00
  0.00000000E+00  4.96881979E+00 -1.83005742E+00  0.00000000E+00  4.96881979E+00
 -1.83005742E+00  0.00000000E+00  4.96881979E+00 -1.83005742E+00  0.00000000E+00
  4.96881979E+00 -1.83005742E+00  0.00000000E+00  4.96881979E+00 -1.83005742E+00
  0.00000000E+00  2.24711178E+00 -5.34256153E+00  0.00000000E+00  2.24711178E+00
 -5.34256153E+00  0.00000000E+00  2.24711178E+00 -5.34256153E+00  0.00000000E+00
  2.24711178E+00 -5.34256153E+00  0.00000000E+00  2.24711178E+00 -5.34256153E+00
  0.00000000E+00 -2.17097154E+00 -5.37004795E+00  0.00000000E+00 -2.17097154E+00
 -5.37004795E+00  0.00000000E+00 -2.17097154E+00 -5.37004795E+00  0.00000000E+00
 -2.17097154E+00 -5.37004795E+00  0.00000000E+00 -2.17097154E+00 -5.37004795E+00
  0.00000000E+00 -4.92798777E+00 -1.88469021E+00  0.00000000E+00 -4.92798777E+00
 -1.88469021E+00  0.00000000E+00 -4.92798777E+00 -1.88469021E+00  0.00000000E+00
 -4.92798777E+00 -1.88469021E+00  0.00000000E+00 -4.92798777E+00 -1.88469021E+00
  0.00000000E+00  1.32552750E-01  4.91854916E+00  0.00000000E+00  1.32552750E-01
  4.91854916E+00  0.00000000E+00  1.32552750E-01  4.91854916E+00  0.00000000E+00
  1.32552750E-01  4.91854916E+00  0.00000000E+00  1.32552750E-01  4.91854916E+00
  0.00000000E+00  1.32552750E-01  4.91854916E+00  0.00000000E+00 -1.63043896E+00
  5.70409872E+00  0.00000000E+00 -1.63043896E+00  5.70409872E+00  0.00000000E+00
 -1.63043896E+00  5.70409872E+00  0.00000000E+00 -1.63043896E+00  5.70409872E+00
  0.00000000E+00 -1.63043896E+00  5.70409872E+00  0.00000000E+00
Constraint Structure                       R   N=          45
  1.30969408E+00 -3.51740174E+00  0.00000000E+00  2.96998650E+00 -1.36177022E+00
  0.00000000E+00 -1.25311848E+00 -3.53561702E+00  0.00000000E+00 -2.93324204E+00
 -1.39650954E+00  0.00000000E+00 -2.41820683E+00  1.11098701E+00  0.00000000E+00
 -3.27684451E-23  2.47591371E+00  0.00000000E+00  2.42867425E+00  1.13915755E+00
  0.00000000E+00 -4.04946200E+00  2.36223313E+00  0.00000000E+00  4.01233456E+00
  2.44262274E+00  0.00000000E+00  4.96881979E+00 -1.83005742E+00  0.00000000E+00
  2.24711178E+00 -5.34256153E+00  0.00000000E+00 -2.17097154E+00 -5.37004795E+00
  0.00000000E+00 -4.92798777E+00 -1.88469021E+00  0.00000000E+00  1.32552750E-01
  4.91854916E+00  0.00000000E+00 -1.63043896E+00  5.70409872E+00  0.00000000E+00
Num ILSW                                   I              100
ILSW                                       I   N=         100
           0           0           0           0           2           0
           0           0           0           0           0          -1
           0           0           0           0           0           0
           0           0           0           0           0           0
           1           0           0           0           0           0
           0           0      100000           0          -1           0
           0           0           0           0           0           0
           0           0           0           1           0           0
           0           0           1           0           0           0
           0           0           4          40           0           0
           0           0           0           0           0           0
           0           0           0           0           0           0
           0           0           0           0           0           0
           0           0           0           0           0           0
           0           0           0           0           0           0
           0           0           0           0           0           0
           0           0           0           0
Num RLSW                                   I               40
RLSW                                       R   N=          40
  1.00000000E+00  1.00000000E+00  1.00000000E+00  1.00000000E+00  1.00000000E+00
  0.00000000E+00  0.00000000E+00  1.00000000E+00  0.00000000E+00  0.00000000E+00
  0.00000000E+00  0.00000000E+00  1.00000000E+00  0.00000000E+00  0.00000000E+00
  0.00000000E+00  0.00000000E+00  1.00000000E+00  0.00000000E+00  0.00000000E+00
  0.00000000E+00  0.00000000E+00  1.00000000E+00  0.00000000E+00  0.00000000E+00
  0.00000000E+00  0.00000000E+00  1.00000000E+00  0.00000000E+00  0.00000000E+00
  0.00000000E+00  0.00000000E+00  0.00000000E+00  0.00000000E+00  0.00000000E+00
  0.00000000E+00  0.00000000E+00  0.00000000E+00  1.00000000E+00  1.00000000E+00
MxBond                                     I                3
NBond                                      I   N=          15
           3           3           3           3           3           3
           3           1           1           1           1           1
           1           2           1
IBond                                      I   N=          45
           2           3          11           1           7          10
           1           4          12           3           5          13
           4           6           8           5           7          14
           2           6           9           5           0           0
           7           0           0           2           0           0
           1           0           0           3           0           0
           4           0           0           6          15           0
          14           0           0
RBond                                      R   N=          45
  1.00000000E+00  2.00000000E+00  1.00000000E+00  1.00000000E+00  2.00000000E+00
  1.00000000E+00  2.00000000E+00  1.00000000E+00  1.00000000E+00  1.00000000E+00
  2.00000000E+00  1.00000000E+00  2.00000000E+00  1.00000000E+00  1.00000000E+00
  1.00000000E+00  1.00000000E+00  2.00000000E+00  2.00000000E+00  1.00000000E+00
  1.00000000E+00  1.00000000E+00  0.00000000E+00  0.00000000E+00  1.00000000E+00
  0.00000000E+00  0.00000000E+00  1.00000000E+00  0.00000000E+00  0.00000000E+00
  1.00000000E+00  0.00000000E+00  0.00000000E+00  1.00000000E+00  0.00000000E+00
  0.00000000E+00  1.00000000E+00  0.00000000E+00  0.00000000E+00  2.00000000E+00
  1.00000000E+00  0.00000000E+00  1.00000000E+00  0.00000000E+00  0.00000000E+00
Virial Ratio                               R      2.001293525420968E+00
SCF Energy                                 R     -3.236180278902261E+02
MP2 Energy                                 R     -3.247533031123787E+02
Total Energy                               R     -3.247533031123787E+02
Post-SCF wavefunction norm                 R      1.189917531781742E+00
RMS Density                                R      2.961623561184908E-09
External E-field                           R   N=          35
  0.00000000E+00  0.00000000E+00  0.00000000E+00  0.00000000E+00  0.00000000E+00
  0.00000000E+00  0.00000000E+00  0.00000000E+00  0.00000000E+00  0.00000000E+00
  0.00000000E+00  0.00000000E+00  0.00000000E+00  0.00000000E+00  0.00000000E+00
  0.00000000E+00  0.00000000E+00  0.00000000E+00  0.00000000E+00  0.00000000E+00
  0.00000000E+00  0.00000000E+00  0.00000000E+00  0.00000000E+00  0.00000000E+00
  0.00000000E+00  0.00000000E+00  0.00000000E+00  0.00000000E+00  0.00000000E+00
  0.00000000E+00  0.00000000E+00  0.00000000E+00  0.00000000E+00  0.00000000E+00
IOpCl                                      I                0
IROHF                                      I                0
Alpha Orbital Energies                     R   N=         225
 -1.55381812E+01 -1.12983825E+01 -1.12680810E+01 -1.12627984E+01 -1.12606931E+01
 -1.12596187E+01 -1.12592827E+01 -1.12544653E+01 -1.21614858E+00 -1.13284904E+00
 -1.06915626E+00 -1.02075443E+00 -9.01349132E-01 -8.73324035E-01 -7.51718382E-01
 -7.28651391E-01 -7.06841942E-01 -6.37847019E-01 -6.31137615E-01 -5.91091910E-01
 -5.69563206E-01 -5.32730385E-01 -5.23075130E-01 -4.98695628E-01 -4.44365587E-01
 -4.25348074E-01 -4.00145422E-01 -2.97073851E-01  3.58519666E-02  4.35148015E-02
  4.49710252E-02  5.06677512E-02  6.31380525E-02  6.94190299E-02  8.38802455E-02
  8.90308429E-02  9.83865757E-02  1.22351805E-01  1.25360293E-01  1.42882369E-01
  1.50460311E-01  1.62138177E-01  1.69323329E-01  1.72690291E-01  1.78773065E-01
  1.83303915E-01  1.83400243E-01  1.87711145E-01  1.92129587E-01  1.95047023E-01
  1.97799345E-01  2.03137245E-01  2.06697625E-01  2.20004901E-01  2.24346224E-01
  2.31765684E-01  2.35319066E-01  2.50470186E-01  2.70893885E-01  2.71109078E-01
  2.77797985E-01  2.87508944E-01  2.88348140E-01  3.07699427E-01  3.15393616E-01
  3.16377186E-01  3.23006448E-01  3.28844707E-01  3.41623027E-01  3.55340720E-01
  3.69785348E-01  3.88360584E-01  3.93778045E-01  4.05965189E-01  4.10180158E-01
  4.31591296E-01  4.33583483E-01  4.51233299E-01  4.53344555E-01  4.75249222E-01
  5.35579144E-01  5.59005832E-01  5.65067884E-01  5.77116714E-01  6.21628052E-01
  6.79516773E-01  6.80462320E-01  7.15611529E-01  7.21761029E-01  7.28148529E-01
  7.39069515E-01  7.42423552E-01  7.49023337E-01  7.51954944E-01  7.80971309E-01
  7.95590147E-01  8.01264447E-01  8.15754692E-01  8.36507250E-01  8.61113099E-01
  8.67410310E-01  8.94113511E-01  9.24965300E-01  9.40706214E-01  9.59285294E-01
  9.72835777E-01  9.81759787E-01  9.91495602E-01  1.00505738E+00  1.02198953E+00
  1.03337088E+00  1.05620934E+00  1.07754393E+00  1.09143201E+00  1.10635677E+00
  1.11698480E+00  1.14367049E+00  1.15511418E+00  1.18632395E+00  1.18883373E+00
  1.20105410E+00  1.21697004E+00  1.24709502E+00  1.25638552E+00  1.26747654E+00
  1.27081360E+00  1.31477161E+00  1.33713089E+00  1.37094071E+00  1.38637523E+00
  1.43637643E+00  1.56075475E+00  1.61818275E+00  1.68297821E+00  1.69498721E+00
  1.73539449E+00  1.75234402E+00  1.77991904E+00  1.80504120E+00  1.80836130E+00
  1.81303308E+00  1.87280659E+00  1.88813587E+00  1.89752945E+00  1.92351789E+00
  1.94961968E+00  1.97754683E+00  1.99868185E+00  2.00829365E+00  2.01639360E+00
  2.03313648E+00  2.07756541E+00  2.10412565E+00  2.19023042E+00  2.20566775E+00
  2.21434563E+00  2.21772156E+00  2.23236484E+00  2.25013623E+00  2.28350582E+00
  2.30024094E+00  2.32083441E+00  2.34302436E+00  2.38542537E+00  2.39071170E+00
  2.40602968E+00  2.51604877E+00  2.56489065E+00  2.63932792E+00  2.75156509E+00
  2.75829907E+00  2.75981682E+00  2.77896120E+00  2.79828957E+00  2.87082749E+00
  2.88245463E+00  2.93500737E+00  2.94730612E+00  2.95639482E+00  2.96942163E+00
  2.99346609E+00  3.01016008E+00  3.01636668E+00  3.03179662E+00  3.03607053E+00
  3.05207087E+00  3.05339415E+00  3.06067551E+00  3.17292590E+00  3.17496730E+00
  3.19433725E+00  3.25489513E+00  3.25511343E+00  3.26803338E+00  3.34801850E+00
  3.36028672E+00  3.36985958E+00  3.50946304E+00  3.59969934E+00  3.63800005E+00
  3.67782494E+00  3.70936499E+00  3.74078391E+00  3.77586278E+00  3.88549236E+00
  3.93782039E+00  3.95767027E+00  4.27164707E+00  4.35010152E+00  4.37672822E+00