14-H                                                                    
Freq      RMP2-FC                                                     6-311++G(d,p)       
Number of atoms                            I               12
Info1-9                                    I   N=           9
          21          20        1002           0           0         100
           6           2           1
Charge                                     I                0
Multiplicity                               I                1
Number of electrons                        I               42
Number of alpha electrons                  I               21
Number of beta electrons                   I               21
Number of basis functions                  I              174
Number of independent functions            I              174
Number of point charges in /Mol/           I                0
Number of translation vectors              I                0
Atomic numbers                             I   N=          12
           6           6           6           6           6           6
           1           1           1           1           1           1
Nuclear charges                            R   N=          12
  6.00000000E+00  6.00000000E+00  6.00000000E+00  6.00000000E+00  6.00000000E+00
  6.00000000E+00  1.00000000E+00  1.00000000E+00  1.00000000E+00  1.00000000E+00
  1.00000000E+00  1.00000000E+00
Current cartesian coordinates              R   N=          36
  2.29184376E+00  1.32319617E+00 -4.93038066E-32  2.29184376E+00 -1.32319710E+00
  0.00000000E+00 -8.15574890E-08 -2.64639236E+00  2.46519033E-32 -2.29184376E+00
 -1.32319617E+00 -9.86076132E-32 -2.29184376E+00  1.32319710E+00 -9.86076132E-32
  8.15574894E-08  2.64639236E+00 -4.93038066E-32  4.07053732E+00  2.35012588E+00
  0.00000000E+00  4.07053743E+00 -2.35012694E+00  0.00000000E+00  3.89745180E-07
 -4.70025123E+00 -1.97215226E-31 -4.07053732E+00 -2.35012588E+00 -2.95822839E-31
 -4.07053743E+00  2.35012694E+00  9.86076132E-32 -3.89745178E-07  4.70025123E+00
  9.86076132E-32
Force Field                                I                0
Int Atom Types                             I   N=          12
           0           0           0           0           0           0
           0           0           0           0           0           0
MM charges                                 R   N=          12
  0.00000000E+00  0.00000000E+00  0.00000000E+00  0.00000000E+00  0.00000000E+00
  0.00000000E+00  0.00000000E+00  0.00000000E+00  0.00000000E+00  0.00000000E+00
  0.00000000E+00  0.00000000E+00
Integer atomic weights                     I   N=          12
          12          12          12          12          12          12
           1           1           1           1           1           1
Real atomic weights                        R   N=          12
  1.20000000E+01  1.20000000E+01  1.20000000E+01  1.20000000E+01  1.20000000E+01
  1.20000000E+01  1.00782504E+00  1.00782504E+00  1.00782504E+00  1.00782504E+00
  1.00782504E+00  1.00782504E+00
Atom fragment info                         I   N=          12
           0           0           0           0           0           0
           0           0           0           0           0           0
Atom residue num                           I   N=          12
           0           0           0           0           0           0
           0           0           0           0           0           0
Nuclear spins                              I   N=          12
           0           0           0           0           0           0
           1           1           1           1           1           1
Nuclear ZEff                               R   N=          12
 -3.60000000E+00 -3.60000000E+00 -3.60000000E+00 -3.60000000E+00 -3.60000000E+00
 -3.60000000E+00 -1.00000000E+00 -1.00000000E+00 -1.00000000E+00 -1.00000000E+00
 -1.00000000E+00 -1.00000000E+00
Nuclear ZNuc                               R   N=          12
  6.00000000E+00  6.00000000E+00  6.00000000E+00  6.00000000E+00  6.00000000E+00
  6.00000000E+00  1.00000000E+00  1.00000000E+00  1.00000000E+00  1.00000000E+00
  1.00000000E+00  1.00000000E+00
Nuclear QMom                               R   N=          12
  0.00000000E+00  0.00000000E+00  0.00000000E+00  0.00000000E+00  0.00000000E+00
  0.00000000E+00  0.00000000E+00  0.00000000E+00  0.00000000E+00  0.00000000E+00
  0.00000000E+00  0.00000000E+00
Nuclear GFac                               R   N=          12
  0.00000000E+00  0.00000000E+00  0.00000000E+00  0.00000000E+00  0.00000000E+00
  0.00000000E+00  2.79284600E+00  2.79284600E+00  2.79284600E+00  2.79284600E+00
  2.79284600E+00  2.79284600E+00
MicOpt                                     I   N=          12
          -1          -1          -1          -1          -1          -1
          -1          -1          -1          -1          -1          -1
Number of contracted shells                I               66
Number of primitive shells                 I              120
Pure/Cartesian d shells                    I                0
Pure/Cartesian f shells                    I                0
Highest angular momentum                   I                2
Largest degree of contraction              I                6
Shell types                                I   N=          66
           0          -1          -1          -1          -1          -2
           0          -1          -1          -1          -1          -2
           0          -1          -1          -1          -1          -2
           0          -1          -1          -1          -1          -2
           0          -1          -1          -1          -1          -2
           0          -1          -1          -1          -1          -2
           0           0           0           0           1           0
           0           0           0           1           0           0
           0           0           1           0           0           0
           0           1           0           0           0           0
           1           0           0           0           0           1
Number of primitives per shell             I   N=          66
           6           3           1           1           1           1
           6           3           1           1           1           1
           6           3           1           1           1           1
           6           3           1           1           1           1
           6           3           1           1           1           1
           6           3           1           1           1           1
           3           1           1           1           1           3
           1           1           1           1           3           1
           1           1           1           3           1           1
           1           1           3           1           1           1
           1           3           1           1           1           1
Shell to atom map                          I   N=          66
           1           1           1           1           1           1
           2           2           2           2           2           2
           3           3           3           3           3           3
           4           4           4           4           4           4
           5           5           5           5           5           5
           6           6           6           6           6           6
           7           7           7           7           7           8
           8           8           8           8           9           9
           9           9           9          10          10          10
          10          10          11          11          11          11
          11          12          12          12          12          12
Primitive exponents                        R   N=         120
  4.56324000E+03  6.82024000E+02  1.54973000E+02  4.44553000E+01  1.30290000E+01
  1.82773000E+00  2.09642000E+01  4.80331000E+00  1.45933000E+00  4.83456000E-01
  1.45585000E-01  4.38000000E-02  6.26000000E-01  4.56324000E+03  6.82024000E+02
  1.54973000E+02  4.44553000E+01  1.30290000E+01  1.82773000E+00  2.09642000E+01
  4.80331000E+00  1.45933000E+00  4.83456000E-01  1.45585000E-01  4.38000000E-02
  6.26000000E-01  4.56324000E+03  6.82024000E+02  1.54973000E+02  4.44553000E+01
  1.30290000E+01  1.82773000E+00  2.09642000E+01  4.80331000E+00  1.45933000E+00
  4.83456000E-01  1.45585000E-01  4.38000000E-02  6.26000000E-01  4.56324000E+03
  6.82024000E+02  1.54973000E+02  4.44553000E+01  1.30290000E+01  1.82773000E+00
  2.09642000E+01  4.80331000E+00  1.45933000E+00  4.83456000E-01  1.45585000E-01
  4.38000000E-02  6.26000000E-01  4.56324000E+03  6.82024000E+02  1.54973000E+02
  4.44553000E+01  1.30290000E+01  1.82773000E+00  2.09642000E+01  4.80331000E+00
  1.45933000E+00  4.83456000E-01  1.45585000E-01  4.38000000E-02  6.26000000E-01
  4.56324000E+03  6.82024000E+02  1.54973000E+02  4.44553000E+01  1.30290000E+01
  1.82773000E+00  2.09642000E+01  4.80331000E+00  1.45933000E+00  4.83456000E-01
  1.45585000E-01  4.38000000E-02  6.26000000E-01  3.38650000E+01  5.09479000E+00
  1.15879000E+00  3.25840000E-01  1.02741000E-01  3.60000000E-02  7.50000000E-01
  3.38650000E+01  5.09479000E+00  1.15879000E+00  3.25840000E-01  1.02741000E-01
  3.60000000E-02  7.50000000E-01  3.38650000E+01  5.09479000E+00  1.15879000E+00
  3.25840000E-01  1.02741000E-01  3.60000000E-02  7.50000000E-01  3.38650000E+01
  5.09479000E+00  1.15879000E+00  3.25840000E-01  1.02741000E-01  3.60000000E-02
  7.50000000E-01  3.38650000E+01  5.09479000E+00  1.15879000E+00  3.25840000E-01
  1.02741000E-01  3.60000000E-02  7.50000000E-01  3.38650000E+01  5.09479000E+00
  1.15879000E+00  3.25840000E-01  1.02741000E-01  3.60000000E-02  7.50000000E-01
Contraction coefficients                   R   N=         120
  1.96665025E-03  1.52306019E-02  7.61269097E-02  2.60801033E-01  6.16462078E-01
  2.21006028E-01  1.14660081E-01  9.19999648E-01 -3.03068213E-03  1.00000000E+00
  1.00000000E+00  1.00000000E+00  1.00000000E+00  1.96665025E-03  1.52306019E-02
  7.61269097E-02  2.60801033E-01  6.16462078E-01  2.21006028E-01  1.14660081E-01
  9.19999648E-01 -3.03068213E-03  1.00000000E+00  1.00000000E+00  1.00000000E+00
  1.00000000E+00  1.96665025E-03  1.52306019E-02  7.61269097E-02  2.60801033E-01
  6.16462078E-01  2.21006028E-01  1.14660081E-01  9.19999648E-01 -3.03068213E-03
  1.00000000E+00  1.00000000E+00  1.00000000E+00  1.00000000E+00  1.96665025E-03
  1.52306019E-02  7.61269097E-02  2.60801033E-01  6.16462078E-01  2.21006028E-01
  1.14660081E-01  9.19999648E-01 -3.03068213E-03  1.00000000E+00  1.00000000E+00
  1.00000000E+00  1.00000000E+00  1.96665025E-03  1.52306019E-02  7.61269097E-02
  2.60801033E-01  6.16462078E-01  2.21006028E-01  1.14660081E-01  9.19999648E-01
 -3.03068213E-03  1.00000000E+00  1.00000000E+00  1.00000000E+00  1.00000000E+00
  1.96665025E-03  1.52306019E-02  7.61269097E-02  2.60801033E-01  6.16462078E-01
  2.21006028E-01  1.14660081E-01  9.19999648E-01 -3.03068213E-03  1.00000000E+00
  1.00000000E+00  1.00000000E+00  1.00000000E+00  2.54938145E-02  1.90373109E-01
  8.52161486E-01  1.00000000E+00  1.00000000E+00  1.00000000E+00  1.00000000E+00
  2.54938145E-02  1.90373109E-01  8.52161486E-01  1.00000000E+00  1.00000000E+00
  1.00000000E+00  1.00000000E+00  2.54938145E-02  1.90373109E-01  8.52161486E-01
  1.00000000E+00  1.00000000E+00  1.00000000E+00  1.00000000E+00  2.54938145E-02
  1.90373109E-01  8.52161486E-01  1.00000000E+00  1.00000000E+00  1.00000000E+00
  1.00000000E+00  2.54938145E-02  1.90373109E-01  8.52161486E-01  1.00000000E+00
  1.00000000E+00  1.00000000E+00  1.00000000E+00  2.54938145E-02  1.90373109E-01
  8.52161486E-01  1.00000000E+00  1.00000000E+00  1.00000000E+00  1.00000000E+00
P(S=P) Contraction coefficients            R   N=         120
  0.00000000E+00  0.00000000E+00  0.00000000E+00  0.00000000E+00  0.00000000E+00
  0.00000000E+00  4.02486927E-02  2.37593957E-01  8.15853851E-01  1.00000000E+00
  1.00000000E+00  1.00000000E+00  0.00000000E+00  0.00000000E+00  0.00000000E+00
  0.00000000E+00  0.00000000E+00  0.00000000E+00  0.00000000E+00  4.02486927E-02
  2.37593957E-01  8.15853851E-01  1.00000000E+00  1.00000000E+00  1.00000000E+00
  0.00000000E+00  0.00000000E+00  0.00000000E+00  0.00000000E+00  0.00000000E+00
  0.00000000E+00  0.00000000E+00  4.02486927E-02  2.37593957E-01  8.15853851E-01
  1.00000000E+00  1.00000000E+00  1.00000000E+00  0.00000000E+00  0.00000000E+00
  0.00000000E+00  0.00000000E+00  0.00000000E+00  0.00000000E+00  0.00000000E+00
  4.02486927E-02  2.37593957E-01  8.15853851E-01  1.00000000E+00  1.00000000E+00
  1.00000000E+00  0.00000000E+00  0.00000000E+00  0.00000000E+00  0.00000000E+00
  0.00000000E+00  0.00000000E+00  0.00000000E+00  4.02486927E-02  2.37593957E-01
  8.15853851E-01  1.00000000E+00  1.00000000E+00  1.00000000E+00  0.00000000E+00
  0.00000000E+00  0.00000000E+00  0.00000000E+00  0.00000000E+00  0.00000000E+00
  0.00000000E+00  4.02486927E-02  2.37593957E-01  8.15853851E-01  1.00000000E+00
  1.00000000E+00  1.00000000E+00  0.00000000E+00  0.00000000E+00  0.00000000E+00
  0.00000000E+00  0.00000000E+00  0.00000000E+00  0.00000000E+00  0.00000000E+00
  0.00000000E+00  0.00000000E+00  0.00000000E+00  0.00000000E+00  0.00000000E+00
  0.00000000E+00  0.00000000E+00  0.00000000E+00  0.00000000E+00  0.00000000E+00
  0.00000000E+00  0.00000000E+00  0.00000000E+00  0.00000000E+00  0.00000000E+00
  0.00000000E+00  0.00000000E+00  0.00000000E+00  0.00000000E+00  0.00000000E+00
  0.00000000E+00  0.00000000E+00  0.00000000E+00  0.00000000E+00  0.00000000E+00
  0.00000000E+00  0.00000000E+00  0.00000000E+00  0.00000000E+00  0.00000000E+00
  0.00000000E+00  0.00000000E+00  0.00000000E+00  0.00000000E+00  0.00000000E+00
Coordinates of each shell                  R   N=         198
  2.29184376E+00  1.32319617E+00 -4.93038066E-32  2.29184376E+00  1.32319617E+00
 -4.93038066E-32  2.29184376E+00  1.32319617E+00 -4.93038066E-32  2.29184376E+00
  1.32319617E+00 -4.93038066E-32  2.29184376E+00  1.32319617E+00 -4.93038066E-32
  2.29184376E+00  1.32319617E+00 -4.93038066E-32  2.29184376E+00 -1.32319710E+00
  0.00000000E+00  2.29184376E+00 -1.32319710E+00  0.00000000E+00  2.29184376E+00
 -1.32319710E+00  0.00000000E+00  2.29184376E+00 -1.32319710E+00  0.00000000E+00
  2.29184376E+00 -1.32319710E+00  0.00000000E+00  2.29184376E+00 -1.32319710E+00
  0.00000000E+00 -8.15574890E-08 -2.64639236E+00  0.00000000E+00 -8.15574890E-08
 -2.64639236E+00  0.00000000E+00 -8.15574890E-08 -2.64639236E+00  0.00000000E+00
 -8.15574890E-08 -2.64639236E+00  0.00000000E+00 -8.15574890E-08 -2.64639236E+00
  0.00000000E+00 -8.15574890E-08 -2.64639236E+00  0.00000000E+00 -2.29184376E+00
 -1.32319617E+00 -9.86076132E-32 -2.29184376E+00 -1.32319617E+00 -9.86076132E-32
 -2.29184376E+00 -1.32319617E+00 -9.86076132E-32 -2.29184376E+00 -1.32319617E+00
 -9.86076132E-32 -2.29184376E+00 -1.32319617E+00 -9.86076132E-32 -2.29184376E+00
 -1.32319617E+00 -9.86076132E-32 -2.29184376E+00  1.32319710E+00 -9.86076132E-32
 -2.29184376E+00  1.32319710E+00 -9.86076132E-32 -2.29184376E+00  1.32319710E+00
 -9.86076132E-32 -2.29184376E+00  1.32319710E+00 -9.86076132E-32 -2.29184376E+00
  1.32319710E+00 -9.86076132E-32 -2.29184376E+00  1.32319710E+00 -9.86076132E-32
  8.15574894E-08  2.64639236E+00 -4.93038066E-32  8.15574894E-08  2.64639236E+00
 -4.93038066E-32  8.15574894E-08  2.64639236E+00 -4.93038066E-32  8.15574894E-08
  2.64639236E+00 -4.93038066E-32  8.15574894E-08  2.64639236E+00 -4.93038066E-32
  8.15574894E-08  2.64639236E+00 -4.93038066E-32  4.07053732E+00  2.35012588E+00
  0.00000000E+00  4.07053732E+00  2.35012588E+00  0.00000000E+00  4.07053732E+00
  2.35012588E+00  0.00000000E+00  4.07053732E+00  2.35012588E+00  0.00000000E+00
  4.07053732E+00  2.35012588E+00  0.00000000E+00  4.07053743E+00 -2.35012694E+00
  0.00000000E+00  4.07053743E+00 -2.35012694E+00  0.00000000E+00  4.07053743E+00
 -2.35012694E+00  0.00000000E+00  4.07053743E+00 -2.35012694E+00  0.00000000E+00
  4.07053743E+00 -2.35012694E+00  0.00000000E+00  3.89745180E-07 -4.70025123E+00
 -9.86076132E-32  3.89745180E-07 -4.70025123E+00 -9.86076132E-32  3.89745180E-07
 -4.70025123E+00 -9.86076132E-32  3.89745180E-07 -4.70025123E+00 -9.86076132E-32
  3.89745180E-07 -4.70025123E+00 -9.86076132E-32 -4.07053732E+00 -2.35012588E+00
 -2.46519033E-31 -4.07053732E+00 -2.35012588E+00 -2.46519033E-31 -4.07053732E+00
 -2.35012588E+00 -2.46519033E-31 -4.07053732E+00 -2.35012588E+00 -2.46519033E-31
 -4.07053732E+00 -2.35012588E+00 -2.46519033E-31 -4.07053743E+00  2.35012694E+00
  9.86076132E-32 -4.07053743E+00  2.35012694E+00  9.86076132E-32 -4.07053743E+00
  2.35012694E+00  9.86076132E-32 -4.07053743E+00  2.35012694E+00  9.86076132E-32
 -4.07053743E+00  2.35012694E+00  9.86076132E-32 -3.89745178E-07  4.70025123E+00
  9.86076132E-32 -3.89745178E-07  4.70025123E+00  9.86076132E-32 -3.89745178E-07
  4.70025123E+00  9.86076132E-32 -3.89745178E-07  4.70025123E+00  9.86076132E-32
 -3.89745178E-07  4.70025123E+00  9.86076132E-32
Constraint Structure                       R   N=          36
  2.29184376E+00  1.32319617E+00 -4.93038066E-32  2.29184376E+00 -1.32319710E+00
  0.00000000E+00 -8.15574890E-08 -2.64639236E+00  0.00000000E+00 -2.29184376E+00
 -1.32319617E+00 -9.86076132E-32 -2.29184376E+00  1.32319710E+00 -9.86076132E-32
  8.15574894E-08  2.64639236E+00 -4.93038066E-32  4.07053732E+00  2.35012588E+00
  0.00000000E+00  4.07053743E+00 -2.35012694E+00  0.00000000E+00  3.89745180E-07
 -4.70025123E+00 -9.86076132E-32 -4.07053732E+00 -2.35012588E+00 -2.46519033E-31
 -4.07053743E+00  2.35012694E+00  9.86076132E-32 -3.89745178E-07  4.70025123E+00
  9.86076132E-32
Num ILSW                                   I              100
ILSW                                       I   N=         100
           0           0           0           0           2           0
           0           0           0           0           0          -1
           0           0           0           0           2           0
           0           0           1           0           1           0
           1           0           0           0           0           0
           0           0      100000           0          -1           0
           0           0           0           0           0           0
           0           0           0           1           1           0
           0           0           1           0           0           0
           0           0           4          41           0           0
           0           0           0           0           0           0
           0           0           0           0           0           0
           0           0           0           0           0           0
           0           0           0           0           0           0
           0           0           0           0           0           0
           0           0           0           0           0           0
           0           0           0           0
Num RLSW                                   I               41
RLSW                                       R   N=          41
  1.00000000E+00  1.00000000E+00  1.00000000E+00  1.00000000E+00  1.00000000E+00
  0.00000000E+00  0.00000000E+00  1.00000000E+00  0.00000000E+00  0.00000000E+00
  0.00000000E+00  0.00000000E+00  1.00000000E+00  0.00000000E+00  0.00000000E+00
  0.00000000E+00  0.00000000E+00  1.00000000E+00  0.00000000E+00  0.00000000E+00
  0.00000000E+00  0.00000000E+00  1.00000000E+00  0.00000000E+00  0.00000000E+00
  0.00000000E+00  0.00000000E+00  1.00000000E+00  0.00000000E+00  0.00000000E+00
  0.00000000E+00  0.00000000E+00  1.00000000E+00  0.00000000E+00  0.00000000E+00
  0.00000000E+00  0.00000000E+00  0.00000000E+00  1.00000000E+00  1.00000000E+00
  0.00000000E+00
MxBond                                     I                3
NBond                                      I   N=          12
           3           3           3           3           3           3
           1           1           1           1           1           1
IBond                                      I   N=          36
           2           6           7           1           3           8
           2           4           9           3           5          10
           4           6          11           1           5          12
           1           0           0           2           0           0
           3           0           0           4           0           0
           5           0           0           6           0           0
RBond                                      R   N=          36
  1.50000000E+00  1.50000000E+00  1.00000000E+00  1.50000000E+00  1.50000000E+00
  1.00000000E+00  1.50000000E+00  1.50000000E+00  1.00000000E+00  1.50000000E+00
  1.50000000E+00  1.00000000E+00  1.50000000E+00  1.50000000E+00  1.00000000E+00
  1.50000000E+00  1.50000000E+00  1.00000000E+00  1.00000000E+00  0.00000000E+00
  0.00000000E+00  1.00000000E+00  0.00000000E+00  0.00000000E+00  1.00000000E+00
  0.00000000E+00  0.00000000E+00  1.00000000E+00  0.00000000E+00  0.00000000E+00
  1.00000000E+00  0.00000000E+00  0.00000000E+00  1.00000000E+00  0.00000000E+00
  0.00000000E+00
Virial Ratio                               R      2.001789442917693E+00
SCF Energy                                 R     -2.307551036009587E+02
MP2 Energy                                 R     -2.315842572649436E+02
Total Energy                               R     -2.315842572649436E+02
Post-SCF wavefunction norm                 R      1.618071229100845E+00
RMS Force                                  R      5.409819670876805E-05
RMS Density                                R      3.199589394254732E-09
External E-field                           R   N=          35
  0.00000000E+00  0.00000000E+00  0.00000000E+00  0.00000000E+00  0.00000000E+00
  0.00000000E+00  0.00000000E+00  0.00000000E+00  0.00000000E+00  0.00000000E+00
  0.00000000E+00  0.00000000E+00  0.00000000E+00  0.00000000E+00  0.00000000E+00
  0.00000000E+00  0.00000000E+00  0.00000000E+00  0.00000000E+00  0.00000000E+00
  0.00000000E+00  0.00000000E+00  0.00000000E+00  0.00000000E+00  0.00000000E+00
  0.00000000E+00  0.00000000E+00  0.00000000E+00  0.00000000E+00  0.00000000E+00
  0.00000000E+00  0.00000000E+00  0.00000000E+00  0.00000000E+00  0.00000000E+00
IOpCl                                      I                0
IROHF                                      I                0
Alpha Orbital Energies                     R   N=         174
 -1.12413359E+01 -1.12407818E+01 -1.12407818E+01 -1.12395847E+01 -1.12395846E+01
 -1.12389976E+01 -1.14875596E+00 -1.01448270E+00 -1.01448262E+00 -8.24105395E-01
 -8.24105247E-01 -7.08477957E-01 -6.45172418E-01 -6.18658071E-01 -5.88576509E-01
 -5.88576397E-01 -4.99716745E-01 -4.95994866E-01 -4.95994661E-01 -3.36158999E-01
 -3.36158920E-01  4.21423461E-02  4.89379059E-02  4.89379115E-02  6.61606994E-02
  6.61607056E-02  8.79364237E-02  1.08027091E-01  1.08027179E-01  1.29658420E-01
  1.52719701E-01  1.52719710E-01  1.58085810E-01  1.62673809E-01  1.80695425E-01
  1.80695437E-01  1.83439561E-01  1.83439572E-01  1.92786245E-01  2.08840815E-01
  2.12117386E-01  2.12117398E-01  2.15711311E-01  2.15711361E-01  2.16741437E-01
  2.28189929E-01  2.28189945E-01  2.49986985E-01  2.49986990E-01  2.89005664E-01
  2.89005678E-01  3.02841175E-01  3.33215711E-01  3.33253628E-01  3.65544993E-01
  4.07381581E-01  4.07381613E-01  4.27719916E-01  4.27719986E-01  4.38035781E-01
  4.96409060E-01  4.96409096E-01  5.06041777E-01  5.06041887E-01  6.04748485E-01
  6.07435454E-01  7.15897921E-01  7.22446506E-01  7.22446586E-01  7.22652522E-01
  7.46749134E-01  7.48170541E-01  7.48170649E-01  7.58702378E-01  7.58702427E-01
  7.96251966E-01  8.19215945E-01  8.19215992E-01  8.84414365E-01  9.38237184E-01
  9.38237348E-01  9.47250514E-01  9.47250618E-01  9.75340384E-01  1.01537565E+00
  1.01537569E+00  1.01858369E+00  1.05934309E+00  1.05934311E+00  1.09661238E+00
  1.11813897E+00  1.11813908E+00  1.12382618E+00  1.17053301E+00  1.21540134E+00
  1.21540147E+00  1.24715069E+00  1.32106651E+00  1.32106667E+00  1.38773245E+00
  1.38773259E+00  1.51991670E+00  1.55835789E+00  1.70876427E+00  1.77973074E+00
  1.77973102E+00  1.79061502E+00  1.82170965E+00  1.84020394E+00  1.84020406E+00
  1.90202017E+00  1.90202036E+00  1.92782534E+00  1.92782570E+00  1.98879795E+00
  2.05196453E+00  2.05196458E+00  2.09778087E+00  2.09778114E+00  2.12262307E+00
  2.22995040E+00  2.22995082E+00  2.23706798E+00  2.24367620E+00  2.24367637E+00
  2.29062522E+00  2.33951662E+00  2.33951676E+00  2.37197513E+00  2.37197515E+00
  2.62861416E+00  2.65171974E+00  2.73154442E+00  2.73154462E+00  2.73898160E+00
  2.80870448E+00  2.80870460E+00  2.94742282E+00  2.94742320E+00  2.98581506E+00
  2.98839638E+00  3.02125175E+00  3.02125182E+00  3.04611097E+00  3.04611105E+00
  3.05482098E+00  3.09164207E+00  3.18899592E+00  3.18899602E+00  3.24797143E+00
  3.29023033E+00  3.29023039E+00  3.31118884E+00  3.31118894E+00  3.47479142E+00
  3.53286704E+00  3.76138026E+00  3.76138057E+00  3.89346231E+00  3.89346245E+00
  3.90831071E+00  4.04900169E+00  4.40005832E+00  4.40005847E+00  4.48702472E+00
  4.56951699E+00  4.56951714E+00  5.26626520E+00  2.47453244E+01  2.51206153E+01
  2.51206158E+01  2.52351597E+01  2.52351604E+01  2.53432680E+01
Alpha MO coefficients                      R   N=       30276
  2.29919557E-01  1.90366541E-01 -2.59017799E-05 -1.49562646E-05  0.00000000E+00
  1.99867574E-03 -1.58736738E-04 -9.16483766E-05  0.00000000E+00 -3.78003916E-04
  1.10978310E-05  6.40823036E-06  0.00000000E+00 -8.96787184E-05 -1.62431097E-04
 -9.37807661E-05  0.00000000E+00 -1.14109962E-04  0.00000000E+00  0.00000000E+00
 -3.21143393E-05 -5.56224736E-05  2.29918648E-01  1.90365788E-01 -2.59016953E-05
  1.49568444E-05  0.00000000E+00  1.99866958E-03 -1.58736904E-04  9.16480721E-05
  0.00000000E+00 -3.78003309E-04  1.10982557E-05 -6.40744375E-06  0.00000000E+00
 -8.96885065E-05 -1.62428771E-04  9.37748309E-05  0.00000000E+00 -1.14109196E-04
  0.00000000E+00  0.00000000E+00 -3.21141031E-05  5.56225035E-05  2.29913191E-01
  1.90361268E-01 -2.78248035E-10  2.99121637E-05  0.00000000E+00  1.99863197E-03
 -1.85533919E-10  1.83292854E-04  0.00000000E+00 -3.77997560E-04  4.77141298E-10
 -1.28123769E-05  0.00000000E+00 -8.97536879E-05 -1.97547175E-09  1.87527532E-04
  0.00000000E+00 -1.14104586E-04  0.00000000E+00  0.00000000E+00  6.42273982E-05
 -1.76746996E-10  2.29919557E-01  1.90366541E-01  2.59017799E-05  1.49562646E-05
  0.00000000E+00  1.99867574E-03  1.58736738E-04  9.16483766E-05  0.00000000E+00
 -3.78003916E-04 -1.10978310E-05 -6.40823036E-06  0.00000000E+00 -8.96787184E-05
  1.62431097E-04  9.37807661E-05  0.00000000E+00 -1.14109962E-04  0.00000000E+00
  0.00000000E+00 -3.21143393E-05 -5.56224736E-05  2.29918648E-01  1.90365788E-01
  2.59016953E-05 -1.49568444E-05  0.00000000E+00  1.99866958E-03  1.58736904E-04
 -9.16480721E-05  0.00000000E+00 -3.78003309E-04 -1.10982557E-05  6.40744375E-06
  0.00000000E+00 -8.96885065E-05  1.62428771E-04 -9.37748309E-05  0.00000000E+00
 -1.14109196E-04  0.00000000E+00  0.00000000E+00 -3.21141031E-05  5.56225035E-05
  2.29913191E-01  1.90361268E-01  2.78248035E-10 -2.99121637E-05  0.00000000E+00
  1.99863197E-03  1.85533919E-10 -1.83292854E-04  0.00000000E+00 -3.77997560E-04
 -4.77141298E-10  1.28123769E-05  0.00000000E+00 -8.97536879E-05  1.97547175E-09
 -1.87527532E-04  0.00000000E+00 -1.14104586E-04  0.00000000E+00  0.00000000E+00
  6.42273982E-05 -1.76746996E-10  1.75618346E-04 -1.05296075E-05  2.35435485E-04
  8.41385210E-05 -2.92517018E-05 -1.68886799E-05  0.00000000E+00  1.75617631E-04
 -1.05291900E-05  2.35434330E-04  8.41364157E-05 -2.92517437E-05  1.68886589E-05
  0.00000000E+00  1.75613677E-04 -1.05269125E-05  2.35429682E-04  8.41259905E-05
 -1.13504411E-10  3.37771939E-05  0.00000000E+00  1.75618346E-04 -1.05296075E-05
  2.35435485E-04  8.41385210E-05  2.92517018E-05  1.68886799E-05  0.00000000E+00
  1.75617631E-04 -1.05291900E-05  2.35434330E-04  8.41364157E-05  2.92517437E-05
 -1.68886589E-05  0.00000000E+00  1.75613677E-04 -1.05269125E-05  2.35429682E-04
  8.41259905E-05  1.13504411E-10 -3.37771939E-05  0.00000000E+00  2.91236730E-01
  2.41172900E-01  3.53015119E-05 -7.18675860E-05  0.00000000E+00  2.34981762E-03
 -6.76533085E-05 -1.23066577E-04  0.00000000E+00 -2.98245663E-04 -6.50017673E-05
  7.44001433E-05  0.00000000E+00 -1.29958240E-03 -6.44942873E-04 -9.56366080E-04
  0.00000000E+00 -1.69176582E-04  0.00000000E+00  0.00000000E+00 -7.91613187E-05
 -3.90532606E-05  2.70916526E-01  2.24345755E-01  4.53417514E-05  8.85105302E-05
  0.00000000E+00  2.18586756E-03 -5.15474922E-05  1.34201490E-04  0.00000000E+00
 -2.77429818E-04 -7.56413036E-05 -9.54832589E-05  0.00000000E+00 -1.20892711E-03
 -5.20787845E-04  1.02674075E-03  0.00000000E+00 -1.57372433E-04  0.00000000E+00
  0.00000000E+00 -8.69289795E-05  2.86555713E-05 -2.03184263E-02 -1.68256721E-02
  1.79213397E-04 -3.74434926E-07  0.00000000E+00 -1.63938386E-04  1.63200494E-04
 -8.38081506E-06  0.00000000E+00  2.08036761E-05 -2.17445038E-04 -1.33463122E-06
  0.00000000E+00  9.06743300E-05  1.13455578E-03 -7.23281038E-05  0.00000000E+00
  1.18026582E-05  0.00000000E+00  0.00000000E+00 -5.12119577E-06  1.09984256E-04
 -2.91236730E-01 -2.41172900E-01  3.53015119E-05 -7.18675860E-05  0.00000000E+00
 -2.34981762E-03 -6.76533085E-05 -1.23066577E-04  0.00000000E+00  2.98245663E-04
 -6.50017673E-05  7.44001433E-05  0.00000000E+00  1.29958240E-03 -6.44942873E-04
 -9.56366080E-04  0.00000000E+00  1.69176582E-04  0.00000000E+00  0.00000000E+00
  7.91613187E-05  3.90532606E-05 -2.70916526E-01 -2.24345755E-01  4.53417514E-05
  8.85105302E-05  0.00000000E+00 -2.18586756E-03 -5.15474922E-05  1.34201490E-04