 Entering Gaussian System, Link 0=g09
 Initial command:
 /apps/software//g09/l1.exe /scratch/itamar/2478.cluster.abaxnet/Gau-30667.inp -scrdir=/scratch/itamar/2478.cluster.abaxnet/
 Entering Link 1 = /apps/software//g09/l1.exe PID=     30668.
  
 Copyright (c) 1988,1990,1992,1993,1995,1998,2003,2009, Gaussian, Inc.
                  All Rights Reserved.
  
 This is part of the Gaussian(R) 09 program.  It is based on
 the Gaussian(R) 03 system (copyright 2003, Gaussian, Inc.),
 the Gaussian(R) 98 system (copyright 1998, Gaussian, Inc.),
 the Gaussian(R) 94 system (copyright 1995, Gaussian, Inc.),
 the Gaussian 92(TM) system (copyright 1992, Gaussian, Inc.),
 the Gaussian 90(TM) system (copyright 1990, Gaussian, Inc.),
 the Gaussian 88(TM) system (copyright 1988, Gaussian, Inc.),
 the Gaussian 86(TM) system (copyright 1986, Carnegie Mellon
 University), and the Gaussian 82(TM) system (copyright 1983,
 Carnegie Mellon University). Gaussian is a federally registered
 trademark of Gaussian, Inc.
  
 This software contains proprietary and confidential information,
 including trade secrets, belonging to Gaussian, Inc.
  
 This software is provided under written license and may be
 used, copied, transmitted, or stored only in accord with that
 written license.
  
 The following legend is applicable only to US Government
 contracts under FAR:
  
                    RESTRICTED RIGHTS LEGEND
  
 Use, reproduction and disclosure by the US Government is
 subject to restrictions as set forth in subparagraphs (a)
 and (c) of the Commercial Computer Software - Restricted
 Rights clause in FAR 52.227-19.
  
 Gaussian, Inc.
 340 Quinnipiac St., Bldg. 40, Wallingford CT 06492
  
  
 ---------------------------------------------------------------
 Warning -- This program may not be used in any manner that
 competes with the business of Gaussian, Inc. or will provide
 assistance to any competitor of Gaussian, Inc.  The licensee
 of this program is prohibited from giving any competitor of
 Gaussian, Inc. access to this program.  By using this program,
 the user acknowledges that Gaussian, Inc. is engaged in the
 business of creating and licensing software in the field of
 computational chemistry and represents and warrants to the
 licensee that it is not a competitor of Gaussian, Inc. and that
 it will not use this program in any manner prohibited above.
 ---------------------------------------------------------------
  

 Cite this work as:
 Gaussian 09, Revision A.02,
 M. J. Frisch, G. W. Trucks, H. B. Schlegel, G. E. Scuseria, 
 M. A. Robb, J. R. Cheeseman, G. Scalmani, V. Barone, B. Mennucci, 
 G. A. Petersson, H. Nakatsuji, M. Caricato, X. Li, H. P. Hratchian, 
 A. F. Izmaylov, J. Bloino, G. Zheng, J. L. Sonnenberg, M. Hada, 
 M. Ehara, K. Toyota, R. Fukuda, J. Hasegawa, M. Ishida, T. Nakajima, 
 Y. Honda, O. Kitao, H. Nakai, T. Vreven, J. A. Montgomery, Jr., 
 J. E. Peralta, F. Ogliaro, M. Bearpark, J. J. Heyd, E. Brothers, 
 K. N. Kudin, V. N. Staroverov, R. Kobayashi, J. Normand, 
 K. Raghavachari, A. Rendell, J. C. Burant, S. S. Iyengar, J. Tomasi, 
 M. Cossi, N. Rega, J. M. Millam, M. Klene, J. E. Knox, J. B. Cross, 
 V. Bakken, C. Adamo, J. Jaramillo, R. Gomperts, R. E. Stratmann, 
 O. Yazyev, A. J. Austin, R. Cammi, C. Pomelli, J. W. Ochterski, 
 R. L. Martin, K. Morokuma, V. G. Zakrzewski, G. A. Voth, 
 P. Salvador, J. J. Dannenberg, S. Dapprich, A. D. Daniels, 
 O. Farkas, J. B. Foresman, J. V. Ortiz, J. Cioslowski, 
 and D. J. Fox, Gaussian, Inc., Wallingford CT, 2009.
 
 ******************************************
 Gaussian 09:  EM64L-G09RevA.02 11-Jun-2009
                 3-Dec-2021 
 ******************************************
 %Mem=3800MB
 %NProcShared=6
 Will use up to    6 processors via shared memory.
 %chk=/home/itamar/Aromaticity-test-set/T10-old-T11-heteroaromatic/CH-/ch-.chk
 -----------------------------
 #P MP2/6-311++G** Density=MP2
 -----------------------------
 1/30=1,38=1/1;
 2/12=2,17=6,18=5,40=1/2;
 3/5=4,6=6,7=1111,11=9,16=1,25=1,30=1,71=1/1,2,3;
 4//1;
 5/5=2,38=5/2;
 8/6=4,10=2/1;
 9/15=1,16=-3/6;
 10/5=1,13=10/2;
 6/7=2,8=2,9=2,10=2,22=2/1;
 99/5=1,9=1/99;
 Leave Link    1 at Fri Dec  3 17:09:39 2021, MaxMem=  498073600 cpu:       0.2
 (Enter /apps/software//g09/l101.exe)
 ---
 CH-
 ---
 Symbolic Z-matrix:
 Charge = -1 Multiplicity = 1
 6                     0.372     1.14485   0. 
 1                     0.70745   2.17733   0. 
 6                    -0.97391   0.70754   0. 
 1                    -1.85213   1.34571   0. 
 6                     0.372    -1.14485   0. 
 1                     0.70745  -2.17733   0. 
 6                    -0.97391  -0.70754   0. 
 1                    -1.85213  -1.34571   0. 
 6                     1.20381   0.        0. 
 1                     2.2894    0.        0. 
 
 NAtoms=     10 NQM=     10 NQMF=      0 NMic=      0 NMicF=      0 NTot=     10.
                    Isotopes and Nuclear Properties:
 (Nuclear quadrupole moments (NQMom) in fm**2, nuclear magnetic moments (NMagM)
  in nuclear magnetons)

  Atom         1           2           3           4           5           6           7           8           9          10
 IAtWgt=          12           1          12           1          12           1          12           1          12           1
 AtmWgt=  12.0000000   1.0078250  12.0000000   1.0078250  12.0000000   1.0078250  12.0000000   1.0078250  12.0000000   1.0078250
 NucSpn=           0           1           0           1           0           1           0           1           0           1
 AtZEff=   0.0000000   0.0000000   0.0000000   0.0000000   0.0000000   0.0000000   0.0000000   0.0000000   0.0000000   0.0000000
 NQMom=    0.0000000   0.0000000   0.0000000   0.0000000   0.0000000   0.0000000   0.0000000   0.0000000   0.0000000   0.0000000
 NMagM=    0.0000000   2.7928460   0.0000000   2.7928460   0.0000000   2.7928460   0.0000000   2.7928460   0.0000000   2.7928460
 Leave Link  101 at Fri Dec  3 17:09:39 2021, MaxMem=  498073600 cpu:       0.2
 (Enter /apps/software//g09/l202.exe)
                          Input orientation:                          
 ---------------------------------------------------------------------
 Center     Atomic      Atomic             Coordinates (Angstroms)
 Number     Number       Type             X           Y           Z
 ---------------------------------------------------------------------
      1          6           0        0.372001    1.144849    0.000000
      2          1           0        0.707445    2.177331    0.000000
      3          6           0       -0.973909    0.707543    0.000000
      4          1           0       -1.852134    1.345710    0.000000
      5          6           0        0.372001   -1.144849    0.000000
      6          1           0        0.707445   -2.177331    0.000000
      7          6           0       -0.973909   -0.707543    0.000000
      8          1           0       -1.852134   -1.345710    0.000000
      9          6           0        1.203812    0.000000    0.000000
     10          1           0        2.289401    0.000000    0.000000
 ---------------------------------------------------------------------
                    Distance matrix (angstroms):
                    1          2          3          4          5
     1  C    0.000000
     2  H    1.085607   0.000000
     3  C    1.415171   2.233210   0.000000
     4  H    2.233186   2.691289   1.085604   0.000000
     5  C    2.289698   3.339072   2.289723   3.339111   0.000000
     6  H    3.339072   4.354662   3.339079   4.354683   1.085607
     7  C    2.289723   3.339079   1.415086   2.233188   1.415171
     8  H    3.339111   4.354683   2.233188   2.691420   2.233186
     9  C    1.415129   2.233193   2.289779   3.339123   1.415129
    10  H    2.233182   2.691348   3.339133   4.354681   2.233182
                    6          7          8          9         10
     6  H    0.000000
     7  C    2.233210   0.000000
     8  H    2.691289   1.085604   0.000000
     9  C    2.233193   2.289779   3.339123   0.000000
    10  H    2.691348   3.339133   4.354681   1.085589   0.000000
 Stoichiometry    C5H5(1-)
 Framework group  C2V[C2(CH),SGV(C4H4)]
 Deg. of freedom     9
 Full point group                 C2V     NOp   4
 Largest Abelian subgroup         C2V     NOp   4
 Largest concise Abelian subgroup C2      NOp   2
                         Standard orientation:                         
 ---------------------------------------------------------------------
 Center     Atomic      Atomic             Coordinates (Angstroms)
 Number     Number       Type             X           Y           Z
 ---------------------------------------------------------------------
      1          6           0        0.000000    1.144849    0.372001
      2          1           0        0.000000    2.177331    0.707445
      3          6           0        0.000000    0.707543   -0.973909
      4          1           0        0.000000    1.345710   -1.852134
      5          6           0        0.000000   -1.144849    0.372001
      6          1           0        0.000000   -2.177331    0.707445
      7          6           0        0.000000   -0.707543   -0.973909
      8          1           0        0.000000   -1.345710   -1.852134
      9          6           0        0.000000    0.000000    1.203812
     10          1           0        0.000000    0.000000    2.289401
 ---------------------------------------------------------------------
 Rotational constants (GHZ):      8.9168179      8.9162276      4.4582614
 Leave Link  202 at Fri Dec  3 17:09:39 2021, MaxMem=  498073600 cpu:       0.1
 (Enter /apps/software//g09/l301.exe)
 Standard basis: 6-311++G(d,p) (5D, 7F)
 Ernie: Thresh=  0.10000D-02 Tol=  0.10000D-05 Strict=F.
 There are    60 symmetry adapted basis functions of A1  symmetry.
 There are    15 symmetry adapted basis functions of A2  symmetry.
 There are    20 symmetry adapted basis functions of B1  symmetry.
 There are    50 symmetry adapted basis functions of B2  symmetry.
 Integral buffers will be    131072 words long.
 Raffenetti 1 integral format.
 Two-electron integral symmetry is turned on.
   145 basis functions,   225 primitive gaussians,   150 cartesian basis functions
    18 alpha electrons       18 beta electrons
       nuclear repulsion energy       148.8492908402 Hartrees.
 IExCor=    0 DFT=F Ex=HF Corr=None ExCW=0 ScaHFX=  1.000000
 ScaDFX=  1.000000  1.000000  1.000000  1.000000 ScalE2=  1.000000  1.000000
 IRadAn=      0 IRanWt=     -1 IRanGd=            0 ICorTp=0
 NAtoms=   10 NActive=   10 NUniq=    6 SFac= 2.08D+00 NAtFMM=   80 NAOKFM=F Big=F
 Leave Link  301 at Fri Dec  3 17:09:39 2021, MaxMem=  498073600 cpu:       0.2
 (Enter /apps/software//g09/l302.exe)
 NPDir=0 NMtPBC=     1 NCelOv=     1 NCel=       1 NClECP=     1 NCelD=      1
         NCelK=      1 NCelE2=     1 NClLst=     1 CellRange=     0.0.
 One-electron integrals computed using PRISM.
 One-electron integral symmetry used in STVInt
 NBasis=   145 RedAO= T  NBF=    60    15    20    50
 NBsUse=   145 1.00D-06 NBFU=    60    15    20    50
 Leave Link  302 at Fri Dec  3 17:09:39 2021, MaxMem=  498073600 cpu:       1.2
 (Enter /apps/software//g09/l303.exe)
 DipDrv:  MaxL=1.
 Leave Link  303 at Fri Dec  3 17:09:39 2021, MaxMem=  498073600 cpu:       0.2
 (Enter /apps/software//g09/l401.exe)
 Harris functional with IExCor=  205 diagonalized for initial guess.
 ExpMin= 3.60D-02 ExpMax= 4.56D+03 ExpMxC= 6.82D+02 IAcc=3 IRadAn=         0 AccDes= 0.00D+00
 HarFok:  IExCor=  205 AccDes= 0.00D+00 IRadAn=         0 IDoV= 1
 ScaDFX=  1.000000  1.000000  1.000000  1.000000
 FoFCou: FMM=F IPFlag=           0 FMFlag=      100000 FMFlg1=           0
         NFxFlg=           0 DoJE=T BraDBF=F KetDBF=T FulRan=T
         Omega=  0.000000  0.000000  1.000000  0.000000  0.000000 ICntrl=     500 IOpCl=  0
         NMat0=    1 NMatS0=    1 NMatT0=    0 NMatD0=    1 NMtDS0=    0 NMtDT0=    0
         I1Cent=           4 NGrid=           0.
 Petite list used in FoFCou.
 Harris En= -192.859340387268    
 Initial guess orbital symmetries:
       Occupied  (A1) (A1) (B2) (B2) (A1) (A1) (A1) (B2) (A1) (B2)
                 (A1) (A1) (B2) (A1) (B2) (B1) (B1) (A2)
       Virtual   (B1) (A2) (A1) (B2) (A1) (A1) (B2) (A1) (B1) (A1)
                 (B2) (A2) (B1) (A1) (B2) (A1) (A1) (B2) (A1) (B2)
                 (B2) (A1) (B1) (A2) (A1) (B2) (A1) (A1) (B2) (B2)
                 (A1) (B2) (B2) (A1) (B2) (A1) (B2) (A1) (B1) (A1)
                 (B2) (A1) (B2) (B1) (A2) (A1) (A2) (B1) (A1) (B2)
                 (B2) (A1) (A1) (B2) (B2) (A1) (A1) (B2) (B1) (A1)
                 (B2) (B1) (A2) (B2) (A1) (B1) (A2) (A1) (A1) (A1)
                 (B2) (A1) (B2) (A2) (B1) (A1) (B2) (B1) (A2) (B1)
                 (A1) (B2) (B1) (A2) (A1) (B2) (B2) (B2) (A1) (A2)
                 (B1) (A2) (A1) (B2) (A1) (A1) (B2) (A1) (B2) (B1)
                 (A1) (A2) (B1) (B2) (A1) (B2) (A1) (B2) (B1) (A2)
                 (B2) (A1) (A1) (B2) (B2) (A1) (A1) (B2) (A1) (B2)
                 (A1) (B2) (A1) (A1) (B2) (A1) (B2)
 The electronic state of the initial guess is 1-A1.
 Leave Link  401 at Fri Dec  3 17:09:40 2021, MaxMem=  498073600 cpu:       2.0
 (Enter /apps/software//g09/l502.exe)
 Closed shell SCF:
 Requested convergence on RMS density matrix=1.00D-08 within 128 cycles.
 Requested convergence on MAX density matrix=1.00D-06.
 Requested convergence on             energy=1.00D-06.
 No special actions if energy rises.
 Using DIIS extrapolation, IDIIS=  1040.
 Integral symmetry usage will be decided dynamically.
 Keep R1 ints in memory in canonical form, NReq=65942865.
 IEnd=       87976 IEndB=       87976 NGot=   498073600 MDV=   433891412
 LenX=   433891412 LenY=   433868471
 Symmetry not used in FoFDir.
 MinBra= 0 MaxBra= 2 Meth= 1.
 IRaf=       0 NMat=   1 IRICut=       1 DoRegI=T DoRafI=F ISym2E= 0 JSym2E=0.

 Cycle   1  Pass 1  IDiag  1:
 E= -191.798293405568    
 DIIS: error= 7.06D-02 at cycle   1 NSaved=   1.
 NSaved= 1 IEnMin= 1 EnMin= -191.798293405568     IErMin= 1 ErrMin= 7.06D-02
 ErrMax= 7.06D-02 EMaxC= 1.00D-01 BMatC= 5.88D-01 BMatP= 5.88D-01
 IDIUse=3 WtCom= 2.94D-01 WtEn= 7.06D-01
 Coeff-Com:  0.100D+01
 Coeff-En:   0.100D+01
 Coeff:      0.100D+01
 Gap=     0.115 Goal=   None    Shift=    0.000
 GapD=    0.115 DampG=1.000 DampE=0.500 DampFc=0.5000 IDamp=-1.
 Damping current iteration by 5.00D-01
 RMSDP=1.07D-02 MaxDP=2.70D-01              OVMax= 3.13D-01

 Cycle   2  Pass 1  IDiag  1:
 E= -192.029152648803     Delta-E=       -0.230859243235 Rises=F Damp=T
 DIIS: error= 3.22D-02 at cycle   2 NSaved=   2.
 NSaved= 2 IEnMin= 2 EnMin= -192.029152648803     IErMin= 2 ErrMin= 3.22D-02
 ErrMax= 3.22D-02 EMaxC= 1.00D-01 BMatC= 9.21D-02 BMatP= 5.88D-01
 IDIUse=3 WtCom= 6.78D-01 WtEn= 3.22D-01
 Coeff-Com: -0.392D+00 0.139D+01
 Coeff-En:   0.000D+00 0.100D+01
 Coeff:     -0.266D+00 0.127D+01
 Gap=     0.231 Goal=   None    Shift=    0.000
 RMSDP=1.50D-02 MaxDP=5.25D-01 DE=-2.31D-01 OVMax= 1.38D-01

 Cycle   3  Pass 1  IDiag  1:
 E= -192.245261322353     Delta-E=       -0.216108673551 Rises=F Damp=F
 DIIS: error= 5.29D-03 at cycle   3 NSaved=   3.
 NSaved= 3 IEnMin= 3 EnMin= -192.245261322353     IErMin= 3 ErrMin= 5.29D-03
 ErrMax= 5.29D-03 EMaxC= 1.00D-01 BMatC= 2.76D-03 BMatP= 9.21D-02
 IDIUse=3 WtCom= 9.47D-01 WtEn= 5.29D-02
 Coeff-Com: -0.994D-01 0.150D+00 0.950D+00
 Coeff-En:   0.000D+00 0.000D+00 0.100D+01
 Coeff:     -0.942D-01 0.142D+00 0.952D+00
 Gap=     0.228 Goal=   None    Shift=    0.000
 RMSDP=2.12D-03 MaxDP=7.13D-02 DE=-2.16D-01 OVMax= 1.33D-02

 Cycle   4  Pass 1  IDiag  1:
 E= -192.248013240128     Delta-E=       -0.002751917775 Rises=F Damp=F
 DIIS: error= 5.07D-04 at cycle   4 NSaved=   4.
 NSaved= 4 IEnMin= 4 EnMin= -192.248013240128     IErMin= 4 ErrMin= 5.07D-04
 ErrMax= 5.07D-04 EMaxC= 1.00D-01 BMatC= 3.82D-05 BMatP= 2.76D-03
 IDIUse=3 WtCom= 9.95D-01 WtEn= 5.07D-03
 Coeff-Com:  0.544D-02-0.124D-01-0.734D-01 0.108D+01
 Coeff-En:   0.000D+00 0.000D+00 0.000D+00 0.100D+01
 Coeff:      0.541D-02-0.123D-01-0.731D-01 0.108D+01
 Gap=     0.227 Goal=   None    Shift=    0.000
 RMSDP=6.47D-04 MaxDP=2.10D-02 DE=-2.75D-03 OVMax= 2.79D-03

 Cycle   5  Pass 1  IDiag  1:
 E= -192.248100907270     Delta-E=       -0.000087667141 Rises=F Damp=F
 DIIS: error= 1.43D-04 at cycle   5 NSaved=   5.
 NSaved= 5 IEnMin= 5 EnMin= -192.248100907270     IErMin= 5 ErrMin= 1.43D-04
 ErrMax= 1.43D-04 EMaxC= 1.00D-01 BMatC= 3.12D-06 BMatP= 3.82D-05
 IDIUse=3 WtCom= 9.99D-01 WtEn= 1.43D-03
 Coeff-Com:  0.356D-02-0.432D-02-0.389D-01-0.210D+00 0.125D+01
 Coeff-En:   0.000D+00 0.000D+00 0.000D+00 0.000D+00 0.100D+01
 Coeff:      0.355D-02-0.431D-02-0.388D-01-0.210D+00 0.125D+01
 Gap=     0.228 Goal=   None    Shift=    0.000
 RMSDP=1.89D-04 MaxDP=5.98D-03 DE=-8.77D-05 OVMax= 1.12D-03

 Cycle   6  Pass 1  IDiag  1:
 E= -192.248108881409     Delta-E=       -0.000007974139 Rises=F Damp=F
 DIIS: error= 1.98D-05 at cycle   6 NSaved=   6.
 NSaved= 6 IEnMin= 6 EnMin= -192.248108881409     IErMin= 6 ErrMin= 1.98D-05
 ErrMax= 1.98D-05 EMaxC= 1.00D-01 BMatC= 4.05D-08 BMatP= 3.12D-06
 IDIUse=1 WtCom= 1.00D+00 WtEn= 0.00D+00
 Coeff-Com: -0.105D-02 0.148D-02 0.102D-01 0.346D-01-0.282D+00 0.124D+01
 Coeff:     -0.105D-02 0.148D-02 0.102D-01 0.346D-01-0.282D+00 0.124D+01
 Gap=     0.228 Goal=   None    Shift=    0.000
 RMSDP=1.28D-05 MaxDP=3.73D-04 DE=-7.97D-06 OVMax= 1.39D-04

 Cycle   7  Pass 1  IDiag  1:
 E= -192.248109020035     Delta-E=       -0.000000138626 Rises=F Damp=F
 DIIS: error= 4.58D-06 at cycle   7 NSaved=   7.
 NSaved= 7 IEnMin= 7 EnMin= -192.248109020035     IErMin= 7 ErrMin= 4.58D-06
 ErrMax= 4.58D-06 EMaxC= 1.00D-01 BMatC= 3.05D-09 BMatP= 4.05D-08
 IDIUse=1 WtCom= 1.00D+00 WtEn= 0.00D+00
 Coeff-Com:  0.122D-03-0.152D-03-0.191D-02-0.515D-02 0.465D-01-0.408D+00
 Coeff-Com:  0.137D+01
 Coeff:      0.122D-03-0.152D-03-0.191D-02-0.515D-02 0.465D-01-0.408D+00
 Coeff:      0.137D+01
 Gap=     0.228 Goal=   None    Shift=    0.000
 RMSDP=1.73D-06 MaxDP=2.71D-05 DE=-1.39D-07 OVMax= 5.16D-05

 Cycle   8  Pass 1  IDiag  1:
 E= -192.248109031219     Delta-E=       -0.000000011184 Rises=F Damp=F
 DIIS: error= 8.25D-07 at cycle   8 NSaved=   8.
 NSaved= 8 IEnMin= 8 EnMin= -192.248109031219     IErMin= 8 ErrMin= 8.25D-07
 ErrMax= 8.25D-07 EMaxC= 1.00D-01 BMatC= 8.06D-11 BMatP= 3.05D-09
 IDIUse=1 WtCom= 1.00D+00 WtEn= 0.00D+00
 Coeff-Com: -0.289D-04 0.371D-04 0.443D-03 0.138D-02-0.103D-01 0.107D+00
 Coeff-Com: -0.465D+00 0.137D+01
 Coeff:     -0.289D-04 0.371D-04 0.443D-03 0.138D-02-0.103D-01 0.107D+00
 Coeff:     -0.465D+00 0.137D+01
 Gap=     0.228 Goal=   None    Shift=    0.000
 RMSDP=3.71D-07 MaxDP=5.84D-06 DE=-1.12D-08 OVMax= 1.27D-05

 Cycle   9  Pass 1  IDiag  1:
 E= -192.248109031587     Delta-E=       -0.000000000368 Rises=F Damp=F
 DIIS: error= 2.61D-07 at cycle   9 NSaved=   9.
 NSaved= 9 IEnMin= 9 EnMin= -192.248109031587     IErMin= 9 ErrMin= 2.61D-07
 ErrMax= 2.61D-07 EMaxC= 1.00D-01 BMatC= 7.96D-12 BMatP= 8.06D-11
 IDIUse=1 WtCom= 1.00D+00 WtEn= 0.00D+00
 Coeff-Com: -0.157D-04 0.215D-04 0.198D-03 0.624D-03-0.493D-02 0.442D-01
 Coeff-Com: -0.174D+00 0.350D+00 0.784D+00
 Coeff:     -0.157D-04 0.215D-04 0.198D-03 0.624D-03-0.493D-02 0.442D-01
 Coeff:     -0.174D+00 0.350D+00 0.784D+00
 Gap=     0.228 Goal=   None    Shift=    0.000
 RMSDP=1.02D-07 MaxDP=3.29D-06 DE=-3.68D-10 OVMax= 1.79D-06

 Cycle  10  Pass 1  IDiag  1:
 E= -192.248109031600     Delta-E=       -0.000000000014 Rises=F Damp=F
 DIIS: error= 1.05D-07 at cycle  10 NSaved=  10.
 NSaved=10 IEnMin=10 EnMin= -192.248109031600     IErMin=10 ErrMin= 1.05D-07
 ErrMax= 1.05D-07 EMaxC= 1.00D-01 BMatC= 9.31D-13 BMatP= 7.96D-12
 IDIUse=1 WtCom= 1.00D+00 WtEn= 0.00D+00
 Coeff-Com:  0.297D-06 0.745D-06-0.346D-04-0.920D-04 0.621D-03-0.943D-02
 Coeff-Com:  0.455D-01-0.166D+00 0.838D-01 0.105D+01
 Coeff:      0.297D-06 0.745D-06-0.346D-04-0.920D-04 0.621D-03-0.943D-02
 Coeff:      0.455D-01-0.166D+00 0.838D-01 0.105D+01
 Gap=     0.228 Goal=   None    Shift=    0.000
 RMSDP=7.19D-08 MaxDP=2.45D-06 DE=-1.36D-11 OVMax= 7.52D-07

 Cycle  11  Pass 1  IDiag  1:
 E= -192.248109031601     Delta-E=       -0.000000000001 Rises=F Damp=F
 DIIS: error= 1.41D-08 at cycle  11 NSaved=  11.
 NSaved=11 IEnMin=11 EnMin= -192.248109031601     IErMin=11 ErrMin= 1.41D-08
 ErrMax= 1.41D-08 EMaxC= 1.00D-01 BMatC= 2.12D-14 BMatP= 9.31D-13
 IDIUse=1 WtCom= 1.00D+00 WtEn= 0.00D+00
 Coeff-Com:  0.340D-06-0.141D-06-0.132D-04-0.368D-04 0.268D-03-0.343D-02
 Coeff-Com:  0.156D-01-0.494D-01-0.292D-02 0.252D+00 0.788D+00
 Coeff:      0.340D-06-0.141D-06-0.132D-04-0.368D-04 0.268D-03-0.343D-02
 Coeff:      0.156D-01-0.494D-01-0.292D-02 0.252D+00 0.788D+00
 Gap=     0.228 Goal=   None    Shift=    0.000
 RMSDP=5.09D-09 MaxDP=1.74D-07 DE=-1.14D-12 OVMax= 7.44D-08

 SCF Done:  E(RHF) =  -192.248109032     A.U. after   11 cycles
             Convg  =    0.5092D-08             -V/T =  2.0013
 KE= 1.920035361132D+02 PE=-7.529573766774D+02 EE= 2.198564406924D+02
 Leave Link  502 at Fri Dec  3 17:09:44 2021, MaxMem=  498073600 cpu:      26.6
 (Enter /apps/software//g09/l801.exe)
 ExpMin= 3.60D-02 ExpMax= 4.56D+03 ExpMxC= 6.82D+02 IAcc=3 IRadAn=         5 AccDes= 0.00D+00
 HarFok:  IExCor=  205 AccDes= 0.00D+00 IRadAn=         5 IDoV=-2
 ScaDFX=  1.000000  1.000000  1.000000  1.000000
 Largest valence mixing into a core orbital is  1.50D-04
 Largest core mixing into a valence orbital is  4.15D-05
 Range of M.O.s used for correlation:     6   145
 NBasis=   145 NAE=    18 NBE=    18 NFC=     5 NFV=     0
 NROrb=    140 NOA=    13 NOB=    13 NVA=   127 NVB=   127

 **** Warning!!: The largest alpha MO coefficient is  0.12851731D+03

 Leave Link  801 at Fri Dec  3 17:09:45 2021, MaxMem=  498073600 cpu:       1.1
 (Enter /apps/software//g09/l906.exe)
 Frozen-core derivative calculation, NFC=   5 NFV=   0.
 FulOut=F Deriv=T AODrv=F NAtomX=    10
   MMem=         540  MDisk=          13 MDiskD=          13
  W3Min=      391500 MinDsk=      649025 NBas6D=         150
 NBas2D=       11535    NTT=       11325    LW2=     2040000
    MDV=   497800079 MDiskM=       45907 NBas2p=        6132
 Fully in-core method, ICMem=   139920225.
 IMap=   1   2   3   4   5   6   7   8   9  10  11  12  13  14  15  16  17  18
 JobTyp=1 Pass  1 fully in-core, NPsUse=  6.
 Compute canonical integrals, IntTyp=   4.
 Symmetry not used in FoFDir.
 MinBra= 0 MaxBra= 2 Meth= 1.
 IRaf=       0 NMat=   1 IRICut=       1 DoRegI=T DoRafI=F ISym2E= 0 JSym2E=0.
 Spin components of T(2) and E(2):
     alpha-alpha T2 =       0.3808366105D-01 E2=     -0.9522471947D-01
     alpha-beta  T2 =       0.1983776362D+00 E2=     -0.5326049407D+00
     beta-beta   T2 =       0.3808366105D-01 E2=     -0.9522471947D-01
 The integrals were generated   1 times.
 ANorm=    0.1128957465D+01
 E2 =    -0.7230543796D+00 EUMP2 =    -0.19297116341120D+03
 Leave Link  906 at Fri Dec  3 17:10:00 2021, MaxMem=  498073600 cpu:      91.6
 (Enter /apps/software//g09/l1002.exe)
 Minotr:  Closed shell wavefunction.
          Computing MP2/KS-MP2 derivatives.
          Using Z-Vector for PSCF gradient.
          Skipping F1 and S1 gradient terms here.
          Frozen-core window.
          Direct CPHF calculation.
          Differentiating once with respect to electric field.
                with respect to dipole field.
          Electric field/nuclear overlap derivatives assumed to be zero.
          Using symmetry in CPHF.
          Requested convergence is 1.0D-10 RMS, and 1.0D-09 maximum.
          NewPWx=F KeepS1=T KeepF1=T KeepIn=T MapXYZ=F SortEE=F KeepMc=T.
          MDV=     498073516 using IRadAn=       0.
          Keep R1 ints in memory in canonical form, NReq=64955109.
 Symmetry not used in FoFDir.
 MinBra= 0 MaxBra= 2 Meth= 1.
 IRaf=       0 NMat=   1 IRICut=       1 DoRegI=T DoRafI=F ISym2E= 0 JSym2E=0.
          Solving linear equations separately, MaxMat=       0.
          There are     1 degrees of freedom in the 1st order CPHF.  IDoFFX=0.
 LinEq1:  Iter=  0 NonCon=     1 RMS=3.90D-03 Max=7.06D-02
 AX will form     1 AO Fock derivatives at one time.
 LinEq1:  Iter=  1 NonCon=     1 RMS=1.10D-03 Max=1.40D-02
 LinEq1:  Iter=  2 NonCon=     1 RMS=3.96D-04 Max=9.29D-03
 LinEq1:  Iter=  3 NonCon=     1 RMS=8.12D-05 Max=1.26D-03
 LinEq1:  Iter=  4 NonCon=     1 RMS=1.39D-05 Max=1.52D-04
 LinEq1:  Iter=  5 NonCon=     1 RMS=1.50D-06 Max=1.68D-05
 LinEq1:  Iter=  6 NonCon=     1 RMS=1.55D-07 Max=1.71D-06
 LinEq1:  Iter=  7 NonCon=     1 RMS=1.23D-08 Max=1.25D-07
 LinEq1:  Iter=  8 NonCon=     1 RMS=2.31D-09 Max=3.55D-08
 LinEq1:  Iter=  9 NonCon=     1 RMS=8.76D-10 Max=2.12D-08
 LinEq1:  Iter= 10 NonCon=     1 RMS=3.23D-10 Max=9.93D-09
 LinEq1:  Iter= 11 NonCon=     1 RMS=1.34D-10 Max=1.91D-09
 LinEq1:  Iter= 12 NonCon=     0 RMS=1.75D-11 Max=2.38D-10
 Linear equations converged to 1.000D-10 1.000D-09 after    12 iterations.
 End of Minotr Frequency-dependent properties file   721 does not exist.
 End of Minotr Frequency-dependent properties file   722 does not exist.
 Leave Link 1002 at Fri Dec  3 17:10:05 2021, MaxMem=  498073600 cpu:      28.8
 (Enter /apps/software//g09/l601.exe)
 Copying SCF densities to generalized density rwf, IOpCl= 0 IROHF=0.

 **********************************************************************

            Population analysis using the MP2 density.

 **********************************************************************

 Orbital symmetries:
       Occupied  (A1) (A1) (B2) (B2) (A1) (A1) (A1) (B2) (A1) (B2)
                 (A1) (A1) (B2) (A1) (B2) (B1) (B1) (A2)
       Virtual   (A1) (B2) (A1) (B2) (A1) (B1) (A1) (B2) (B1) (A2)
                 (B1) (A2) (A1) (B2) (A1) (A1) (B2) (B2) (A1) (A1)
                 (B2) (A1) (B2) (A1) (B2) (B1) (A2) (A1) (B2) (A1)
                 (A1) (B2) (A1) (B2) (A1) (B2) (A1) (B2) (A1) (B2)
                 (A1) (B2) (B1) (B1) (A2) (A1) (B1) (A2) (A1) (B2)
                 (A1) (A1) (B2) (B2) (A1) (B2) (A1) (B2) (A1) (B2)
                 (B1) (A1) (B2) (B1) (A2) (B1) (A2) (A1) (A1) (B2)
                 (A1) (B2) (A2) (B1) (A1) (B1) (A1) (B2) (A2) (B1)
                 (A1) (B2) (B1) (A2) (B2) (A1) (B2) (B2) (A1) (A2)
                 (B1) (A2) (B2) (A1) (A1) (A1) (B2) (A1) (A1) (B2)
                 (A1) (B2) (A1) (B2) (B1) (B2) (A2) (B1) (B1) (A2)
                 (B2) (A1) (A1) (B2) (B2) (A1) (A1) (B2) (A1) (B2)
                 (A1) (B2) (A1) (A1) (B2) (A1) (B2)
 The electronic state is 1-A1.
 Alpha  occ. eigenvalues --  -11.00587 -11.00517 -11.00517 -11.00394 -11.00394
 Alpha  occ. eigenvalues --   -0.92828  -0.72820  -0.72818  -0.51938  -0.51938
 Alpha  occ. eigenvalues --   -0.48497  -0.32829  -0.32825  -0.30431  -0.30430
 Alpha  occ. eigenvalues --   -0.28048  -0.07120  -0.07117
 Alpha virt. eigenvalues --    0.15645   0.15645   0.15806   0.17105   0.17105
 Alpha virt. eigenvalues --    0.28277   0.28282   0.28282   0.30066   0.30066
 Alpha virt. eigenvalues --    0.30329   0.30329   0.31697   0.31697   0.33155
 Alpha virt. eigenvalues --    0.33324   0.33324   0.33647   0.33647   0.34295
 Alpha virt. eigenvalues --    0.37990   0.39214   0.39214   0.43298   0.43298
 Alpha virt. eigenvalues --    0.46220   0.46220   0.51467   0.58134   0.58134
 Alpha virt. eigenvalues --    0.59090   0.59091   0.63689   0.63691   0.74595
 Alpha virt. eigenvalues --    0.74596   0.78259   0.83644   0.91555   0.91555
 Alpha virt. eigenvalues --    0.93447   0.93447   0.94387   0.96391   0.96392
 Alpha virt. eigenvalues --    1.03705   1.04226   1.04226   1.12459   1.12462
 Alpha virt. eigenvalues --    1.16288   1.19062   1.19062   1.19460   1.19461
 Alpha virt. eigenvalues --    1.26251   1.27750   1.27750   1.31577   1.31577
 Alpha virt. eigenvalues --    1.37944   1.44400   1.44401   1.54393   1.54393
 Alpha virt. eigenvalues --    1.58833   1.58835   1.69356   2.00266   2.00266
 Alpha virt. eigenvalues --    2.02237   2.02242   2.02574   2.02574   2.02723
 Alpha virt. eigenvalues --    2.17408   2.18813   2.18815   2.27957   2.27959
 Alpha virt. eigenvalues --    2.35204   2.35205   2.38182   2.38187   2.41805
 Alpha virt. eigenvalues --    2.46693   2.46695   2.53534   2.53535   2.72553
 Alpha virt. eigenvalues --    2.79189   2.79190   2.88432   2.88433   2.90948
 Alpha virt. eigenvalues --    3.03082   3.03084   3.15525   3.19428   3.19432
 Alpha virt. eigenvalues --    3.25778   3.25781   3.26884   3.26885   3.29794
 Alpha virt. eigenvalues --    3.32892   3.41344   3.41344   3.62539   3.62539
 Alpha virt. eigenvalues --    3.80825   3.80826   3.93970   3.93971   4.04703
 Alpha virt. eigenvalues --    4.04710   4.10785   4.69980   4.69981   4.70492
 Alpha virt. eigenvalues --    4.70495   5.34234  25.00737  25.35347  25.35360
 Alpha virt. eigenvalues --   25.49722  25.49724
          Condensed to atoms (all electrons):
              1          2          3          4          5          6
     1  C    9.596752   0.681153  -2.808872  -0.305776   1.028327   0.082285
     2  H    0.681153   0.749713  -0.305797  -0.028144   0.082285   0.001314
     3  C   -2.808872  -0.305797   9.597317   0.681180   1.028459   0.082301
     4  H   -0.305776  -0.028144   0.681180   0.749703   0.082287   0.001315
     5  C    1.028327   0.082285   1.028459   0.082287   9.596752   0.681153
     6  H    0.082285   0.001314   0.082301   0.001315   0.681153   0.749713
     7  C    1.028459   0.082301  -2.809586  -0.305824  -2.808872  -0.305797
     8  H    0.082287   0.001315  -0.305824  -0.028149  -0.305776  -0.028144
     9  C   -2.809047  -0.305804   1.028366   0.082281  -2.809047  -0.305804
    10  H   -0.305805  -0.028147   0.082284   0.001315  -0.305805  -0.028147
              7          8          9         10
     1  C    1.028459   0.082287  -2.809047  -0.305805
     2  H    0.082301   0.001315  -0.305804  -0.028147
     3  C   -2.809586  -0.305824   1.028366   0.082284
     4  H   -0.305824  -0.028149   0.082281   0.001315
     5  C   -2.808872  -0.305776  -2.809047  -0.305805
     6  H   -0.305797  -0.028144  -0.305804  -0.028147
     7  C    9.597317   0.681180   1.028366   0.082284
     8  H    0.681180   0.749703   0.082281   0.001315
     9  C    1.028366   0.082281   9.597083   0.681190
    10  H    0.082284   0.001315   0.681190   0.749706
 Mulliken atomic charges:
              1
     1  C   -0.269764
     2  H    0.069810
     3  C   -0.269828
     4  H    0.069812
     5  C   -0.269764
     6  H    0.069810
     7  C   -0.269828
     8  H    0.069812
     9  C   -0.269867
    10  H    0.069810
 Sum of Mulliken atomic charges =  -1.00000
 Mulliken charges with hydrogens summed into heavy atoms:
              1
     1  C   -0.199955
     3  C   -0.200017
     5  C   -0.199955
     7  C   -0.200017
     9  C   -0.200057
 Sum of Mulliken charges with hydrogens summed into heavy atoms =  -1.00000
 Electronic spatial extent (au):  <R**2>=            338.1817
 Charge=             -1.0000 electrons
 Dipole moment (field-independent basis, Debye):
    X=              0.0000    Y=              0.0000    Z=              0.0000  Tot=              0.0000
 Quadrupole moment (field-independent basis, Debye-Ang):
   XX=            -41.9965   YY=            -39.0922   ZZ=            -39.0916
   XY=              0.0000   XZ=              0.0000   YZ=              0.0000
 Traceless Quadrupole moment (field-independent basis, Debye-Ang):
   XX=             -1.9364   YY=              0.9679   ZZ=              0.9685
   XY=              0.0000   XZ=              0.0000   YZ=              0.0000
 Octapole moment (field-independent basis, Debye-Ang**2):
  XXX=              0.0000  YYY=              0.0000  ZZZ=              0.0010  XYY=              0.0000
  XXY=              0.0000  XXZ=             -0.0001  XZZ=              0.0000  YZZ=              0.0000
  YYZ=             -0.0008  XYZ=              0.0000
 Hexadecapole moment (field-independent basis, Debye-Ang**3):
 XXXX=            -76.5690 YYYY=           -256.5493 ZZZZ=           -256.5525 XXXY=              0.0000
 XXXZ=              0.0000 YYYX=              0.0000 YYYZ=              0.0000 ZZZX=              0.0000
 ZZZY=              0.0000 XXYY=            -64.7967 XXZZ=            -64.7962 YYZZ=            -85.5167
 XXYZ=              0.0000 YYXZ=              0.0000 ZZXY=              0.0000
 N-N= 1.488492908402D+02 E-N=-7.536122065936D+02  KE= 1.929035883846D+02
 Symmetry A1   KE= 1.117102219242D+02
 Symmetry A2   KE= 2.205213619415D+00
 Symmetry B1   KE= 3.951994660859D+00
 Symmetry B2   KE= 7.503615818011D+01
 No NMR shielding tensors so no spin-rotation constants.
 Leave Link  601 at Fri Dec  3 17:10:05 2021, MaxMem=  498073600 cpu:       1.8
 (Enter /apps/software//g09/l9999.exe)
 1\1\GINC-DLT06\SP\RMP2-FC\6-311++G(d,p)\C5H5(1-)\ITAMAR\03-Dec-2021\0\
 \#P MP2/6-311++G** Density=MP2\\CH-\\-1,1\C,0,0.372001,1.144849,0.\H,0
 ,0.707445,2.177331,0.\C,0,-0.973909,0.707543,0.\H,0,-1.852134,1.34571,
 0.\C,0,0.372001,-1.144849,0.\H,0,0.707445,-2.177331,0.\C,0,-0.973909,-
 0.707543,0.\H,0,-1.852134,-1.34571,0.\C,0,1.203812,0.,0.\H,0,2.289401,
 0.,0.\\Version=EM64L-G09RevA.02\State=1-A1\HF=-192.248109\MP2=-192.971
 1634\RMSD=5.092e-09\Dipole=-0.0000006,0.,0.\Quadrupole=0.7200594,0.719
 6329,-1.4396922,0.,0.,0.\PG=C02V [C2(C1H1),SGV(C4H4)]\\@


 ANYONE WHO IS NOT SHOCKED BY QUANTUM THEORY HAS
 NOT UNDERSTOOD IT. -- NIELS BOHR(1885-1962)
 Job cpu time:  0 days  0 hours  2 minutes 34.9 seconds.
 File lengths (MBytes):  RWF=     10 Int=      0 D2E=      0 Chk=      3 Scr=      1
 Normal termination of Gaussian 09 at Fri Dec  3 17:10:05 2021.
