 Entering Gaussian System, Link 0=g09
 Initial command:
 /apps/software//g09/l1.exe /scratch/itamar/2484.cluster.abaxnet/Gau-13288.inp -scrdir=/scratch/itamar/2484.cluster.abaxnet/
 Entering Link 1 = /apps/software//g09/l1.exe PID=     13289.
  
 Copyright (c) 1988,1990,1992,1993,1995,1998,2003,2009, Gaussian, Inc.
                  All Rights Reserved.
  
 This is part of the Gaussian(R) 09 program.  It is based on
 the Gaussian(R) 03 system (copyright 2003, Gaussian, Inc.),
 the Gaussian(R) 98 system (copyright 1998, Gaussian, Inc.),
 the Gaussian(R) 94 system (copyright 1995, Gaussian, Inc.),
 the Gaussian 92(TM) system (copyright 1992, Gaussian, Inc.),
 the Gaussian 90(TM) system (copyright 1990, Gaussian, Inc.),
 the Gaussian 88(TM) system (copyright 1988, Gaussian, Inc.),
 the Gaussian 86(TM) system (copyright 1986, Carnegie Mellon
 University), and the Gaussian 82(TM) system (copyright 1983,
 Carnegie Mellon University). Gaussian is a federally registered
 trademark of Gaussian, Inc.
  
 This software contains proprietary and confidential information,
 including trade secrets, belonging to Gaussian, Inc.
  
 This software is provided under written license and may be
 used, copied, transmitted, or stored only in accord with that
 written license.
  
 The following legend is applicable only to US Government
 contracts under FAR:
  
                    RESTRICTED RIGHTS LEGEND
  
 Use, reproduction and disclosure by the US Government is
 subject to restrictions as set forth in subparagraphs (a)
 and (c) of the Commercial Computer Software - Restricted
 Rights clause in FAR 52.227-19.
  
 Gaussian, Inc.
 340 Quinnipiac St., Bldg. 40, Wallingford CT 06492
  
  
 ---------------------------------------------------------------
 Warning -- This program may not be used in any manner that
 competes with the business of Gaussian, Inc. or will provide
 assistance to any competitor of Gaussian, Inc.  The licensee
 of this program is prohibited from giving any competitor of
 Gaussian, Inc. access to this program.  By using this program,
 the user acknowledges that Gaussian, Inc. is engaged in the
 business of creating and licensing software in the field of
 computational chemistry and represents and warrants to the
 licensee that it is not a competitor of Gaussian, Inc. and that
 it will not use this program in any manner prohibited above.
 ---------------------------------------------------------------
  

 Cite this work as:
 Gaussian 09, Revision A.02,
 M. J. Frisch, G. W. Trucks, H. B. Schlegel, G. E. Scuseria, 
 M. A. Robb, J. R. Cheeseman, G. Scalmani, V. Barone, B. Mennucci, 
 G. A. Petersson, H. Nakatsuji, M. Caricato, X. Li, H. P. Hratchian, 
 A. F. Izmaylov, J. Bloino, G. Zheng, J. L. Sonnenberg, M. Hada, 
 M. Ehara, K. Toyota, R. Fukuda, J. Hasegawa, M. Ishida, T. Nakajima, 
 Y. Honda, O. Kitao, H. Nakai, T. Vreven, J. A. Montgomery, Jr., 
 J. E. Peralta, F. Ogliaro, M. Bearpark, J. J. Heyd, E. Brothers, 
 K. N. Kudin, V. N. Staroverov, R. Kobayashi, J. Normand, 
 K. Raghavachari, A. Rendell, J. C. Burant, S. S. Iyengar, J. Tomasi, 
 M. Cossi, N. Rega, J. M. Millam, M. Klene, J. E. Knox, J. B. Cross, 
 V. Bakken, C. Adamo, J. Jaramillo, R. Gomperts, R. E. Stratmann, 
 O. Yazyev, A. J. Austin, R. Cammi, C. Pomelli, J. W. Ochterski, 
 R. L. Martin, K. Morokuma, V. G. Zakrzewski, G. A. Voth, 
 P. Salvador, J. J. Dannenberg, S. Dapprich, A. D. Daniels, 
 O. Farkas, J. B. Foresman, J. V. Ortiz, J. Cioslowski, 
 and D. J. Fox, Gaussian, Inc., Wallingford CT, 2009.
 
 ******************************************
 Gaussian 09:  EM64L-G09RevA.02 11-Jun-2009
                 3-Dec-2021 
 ******************************************
 %Mem=3800MB
 %NProcShared=6
 Will use up to    6 processors via shared memory.
 %chk=/home/itamar/Aromaticity-test-set/T12-old-T14-Fulvenes/Hepta-O/hepta-o.chk
 -----------------------------
 #P MP2/6-311++G** DENSITY=MP2
 -----------------------------
 1/30=1,38=1/1;
 2/12=2,17=6,18=5,40=1/2;
 3/5=4,6=6,7=1111,11=9,16=1,25=1,30=1,71=1/1,2,3;
 4//1;
 5/5=2,38=5/2;
 8/6=4,10=2/1;
 9/15=1,16=-3/6;
 10/5=1,13=10/2;
 6/7=2,8=2,9=2,10=2,22=2/1;
 99/5=1,9=1/99;
 Leave Link    1 at Fri Dec  3 17:30:32 2021, MaxMem=  498073600 cpu:       0.2
 (Enter /apps/software//g09/l101.exe)
 -------
 Hepta-O
 -------
 Symbolic Z-matrix:
 Charge =  0 Multiplicity = 1
 6                     0.68056  -1.84682   0. 
 6                     1.5626   -0.71834   0. 
 6                    -0.68053  -1.84684   0. 
 6                    -1.56261  -0.7184    0. 
 6                    -1.2843    0.61125   0. 
 6                     0.        1.32714   0. 
 6                     1.2843    0.6113    0. 
 1                    -2.1256    1.29797   0. 
 1                     2.12563   1.29799   0. 
 1                     2.61887  -0.97415   0. 
 1                     1.16831  -2.81662   0. 
 1                    -1.16825  -2.81667   0. 
 1                    -2.61887  -0.97423   0. 
 8                    -0.00003   2.55874   0. 
 
 NAtoms=     14 NQM=     14 NQMF=      0 NMic=      0 NMicF=      0 NTot=     14.
                    Isotopes and Nuclear Properties:
 (Nuclear quadrupole moments (NQMom) in fm**2, nuclear magnetic moments (NMagM)
  in nuclear magnetons)

  Atom         1           2           3           4           5           6           7           8           9          10
 IAtWgt=          12          12          12          12          12          12          12           1           1           1
 AtmWgt=  12.0000000  12.0000000  12.0000000  12.0000000  12.0000000  12.0000000  12.0000000   1.0078250   1.0078250   1.0078250
 NucSpn=           0           0           0           0           0           0           0           1           1           1
 AtZEff=   0.0000000   0.0000000   0.0000000   0.0000000   0.0000000   0.0000000   0.0000000   0.0000000   0.0000000   0.0000000
 NQMom=    0.0000000   0.0000000   0.0000000   0.0000000   0.0000000   0.0000000   0.0000000   0.0000000   0.0000000   0.0000000
 NMagM=    0.0000000   0.0000000   0.0000000   0.0000000   0.0000000   0.0000000   0.0000000   2.7928460   2.7928460   2.7928460

  Atom        11          12          13          14
 IAtWgt=           1           1           1          16
 AtmWgt=   1.0078250   1.0078250   1.0078250  15.9949146
 NucSpn=           1           1           1           0
 AtZEff=   0.0000000   0.0000000   0.0000000   0.0000000
 NQMom=    0.0000000   0.0000000   0.0000000   0.0000000
 NMagM=    2.7928460   2.7928460   2.7928460   0.0000000
 Leave Link  101 at Fri Dec  3 17:30:33 2021, MaxMem=  498073600 cpu:       0.3
 (Enter /apps/software//g09/l202.exe)
                          Input orientation:                          
 ---------------------------------------------------------------------
 Center     Atomic      Atomic             Coordinates (Angstroms)
 Number     Number       Type             X           Y           Z
 ---------------------------------------------------------------------
      1          6           0        0.680562   -1.846819    0.000000
      2          6           0        1.562598   -0.718338    0.000000
      3          6           0       -0.680532   -1.846844    0.000000
      4          6           0       -1.562607   -0.718398    0.000000
      5          6           0       -1.284295    0.611249    0.000000
      6          6           0        0.000000    1.327143    0.000000
      7          6           0        1.284302    0.611299    0.000000
      8          1           0       -2.125603    1.297971    0.000000
      9          1           0        2.125631    1.297991    0.000000
     10          1           0        2.618869   -0.974154    0.000000
     11          1           0        1.168314   -2.816619    0.000000
     12          1           0       -1.168248   -2.816668    0.000000
     13          1           0       -2.618873   -0.974232    0.000000
     14          8           0       -0.000031    2.558744    0.000000
 ---------------------------------------------------------------------
                    Distance matrix (angstroms):
                    1          2          3          4          5
     1  C    0.000000
     2  C    1.432291   0.000000
     3  C    1.361094   2.511007   0.000000
     4  C    2.511004   3.125205   1.432287   0.000000
     5  C    3.146865   3.142070   2.531156   1.358462   0.000000
     6  C    3.246105   2.574044   3.246123   2.574098   1.470346
     7  C    2.531175   1.358449   3.146910   3.142131   2.568597
     8  H    4.214768   4.203371   3.460938   2.093492   1.085996
     9  H    3.460933   2.093463   4.214800   4.203442   3.478392
    10  H    2.125695   1.086807   3.412863   4.189290   4.212860
    11  H    1.085548   2.135004   2.087749   3.443902   4.214922
    12  H    2.087751   3.443909   1.085553   2.135007   3.429881
    13  H    3.412870   4.189294   2.125704   1.086807   2.072402
    14  O    4.457824   3.630575   4.457834   3.630606   2.332825
                    6          7          8          9         10
     6  C    0.000000
     7  C    1.470328   0.000000
     8  H    2.125803   3.478357   0.000000
     9  H    2.125831   1.085993   4.251234   0.000000
    10  H    3.486322   2.072373   5.260472   2.325065   0.000000
    11  H    4.305313   3.429880   5.270649   4.224508   2.344949
    12  H    4.305342   4.214968   4.224545   5.270679   4.211545
    13  H    3.486377   4.212919   2.325128   5.260543   5.237742
    14  O    1.231601   2.332821   2.471357   2.471424   4.397727
                   11         12         13         14
    11  H    0.000000
    12  H    2.336562   0.000000
    13  H    4.211553   2.344970   0.000000
    14  O    5.500869   5.500889   4.397755   0.000000
 Stoichiometry    C7H6O
 Framework group  CS[SG(C7H6O)]
 Deg. of freedom    25
 Full point group                 CS      NOp   2
 Largest Abelian subgroup         CS      NOp   2
 Largest concise Abelian subgroup C1      NOp   1
                         Standard orientation:                         
 ---------------------------------------------------------------------
 Center     Atomic      Atomic             Coordinates (Angstroms)
 Number     Number       Type             X           Y           Z
 ---------------------------------------------------------------------
      1          6           0        0.680562   -1.846819    0.000000
      2          6           0        1.562598   -0.718338    0.000000
      3          6           0       -0.680532   -1.846844    0.000000
      4          6           0       -1.562607   -0.718398    0.000000
      5          6           0       -1.284295    0.611249    0.000000
      6          6           0        0.000000    1.327143    0.000000
      7          6           0        1.284302    0.611299    0.000000
      8          1           0       -2.125603    1.297971    0.000000
      9          1           0        2.125631    1.297991    0.000000
     10          1           0        2.618869   -0.974154    0.000000
     11          1           0        1.168313   -2.816619    0.000000
     12          1           0       -1.168249   -2.816668    0.000000
     13          1           0       -2.618873   -0.974232    0.000000
     14          8           0       -0.000031    2.558744    0.000000
 ---------------------------------------------------------------------
 Rotational constants (GHZ):      3.7439454      2.0203892      1.3122463
 Leave Link  202 at Fri Dec  3 17:30:33 2021, MaxMem=  498073600 cpu:       0.1
 (Enter /apps/software//g09/l301.exe)
 Standard basis: 6-311++G(d,p) (5D, 7F)
 Ernie: Thresh=  0.10000D-02 Tol=  0.10000D-05 Strict=F.
 There are   164 symmetry adapted basis functions of A'  symmetry.
 There are    54 symmetry adapted basis functions of A"  symmetry.
 Integral buffers will be    131072 words long.
 Raffenetti 1 integral format.
 Two-electron integral symmetry is turned on.
   218 basis functions,   342 primitive gaussians,   226 cartesian basis functions
    28 alpha electrons       28 beta electrons
       nuclear repulsion energy       321.6978391510 Hartrees.
 IExCor=    0 DFT=F Ex=HF Corr=None ExCW=0 ScaHFX=  1.000000
 ScaDFX=  1.000000  1.000000  1.000000  1.000000 ScalE2=  1.000000  1.000000
 IRadAn=      0 IRanWt=     -1 IRanGd=            0 ICorTp=0
 NAtoms=   14 NActive=   14 NUniq=   14 SFac= 7.50D-01 NAtFMM=   80 NAOKFM=F Big=F
 Leave Link  301 at Fri Dec  3 17:30:33 2021, MaxMem=  498073600 cpu:       0.2
 (Enter /apps/software//g09/l302.exe)
 NPDir=0 NMtPBC=     1 NCelOv=     1 NCel=       1 NClECP=     1 NCelD=      1
         NCelK=      1 NCelE2=     1 NClLst=     1 CellRange=     0.0.
 One-electron integrals computed using PRISM.
 NBasis=   218 RedAO= T  NBF=   164    54
 NBsUse=   218 1.00D-06 NBFU=   164    54
 Leave Link  302 at Fri Dec  3 17:30:33 2021, MaxMem=  498073600 cpu:       1.9
 (Enter /apps/software//g09/l303.exe)
 DipDrv:  MaxL=1.
 Leave Link  303 at Fri Dec  3 17:30:33 2021, MaxMem=  498073600 cpu:       0.2
 (Enter /apps/software//g09/l401.exe)
 Harris functional with IExCor=  205 diagonalized for initial guess.
 ExpMin= 3.60D-02 ExpMax= 8.59D+03 ExpMxC= 1.30D+03 IAcc=3 IRadAn=         0 AccDes= 0.00D+00
 HarFok:  IExCor=  205 AccDes= 0.00D+00 IRadAn=         0 IDoV= 1
 ScaDFX=  1.000000  1.000000  1.000000  1.000000
 FoFCou: FMM=F IPFlag=           0 FMFlag=      100000 FMFlg1=           0
         NFxFlg=           0 DoJE=T BraDBF=F KetDBF=T FulRan=T
         Omega=  0.000000  0.000000  1.000000  0.000000  0.000000 ICntrl=     500 IOpCl=  0
         NMat0=    1 NMatS0=    1 NMatT0=    0 NMatD0=    1 NMtDS0=    0 NMtDT0=    0
         I1Cent=           4 NGrid=           0.
 Petite list used in FoFCou.
 Harris En= -343.907002947105    
 Initial guess orbital symmetries:
       Occupied  (A') (A') (A') (A') (A') (A') (A') (A') (A') (A')
                 (A') (A') (A') (A') (A') (A') (A') (A') (A') (A')
                 (A') (A") (A') (A') (A") (A") (A') (A")
       Virtual   (A") (A") (A") (A') (A") (A') (A') (A') (A') (A')
                 (A") (A') (A') (A') (A") (A") (A') (A') (A') (A')
                 (A') (A') (A") (A") (A') (A') (A') (A') (A') (A')
                 (A") (A") (A') (A') (A') (A') (A') (A') (A') (A")
                 (A') (A') (A') (A') (A') (A') (A') (A') (A') (A')
                 (A') (A') (A') (A') (A') (A') (A") (A') (A') (A')
                 (A') (A') (A') (A") (A") (A") (A") (A') (A') (A")
                 (A") (A') (A') (A') (A') (A') (A') (A') (A') (A')
                 (A') (A') (A') (A') (A') (A") (A') (A") (A") (A")
                 (A') (A') (A") (A") (A") (A') (A') (A') (A") (A')
                 (A') (A') (A') (A') (A') (A') (A") (A") (A") (A')
                 (A") (A') (A') (A') (A') (A") (A") (A') (A') (A")
                 (A') (A") (A') (A') (A') (A") (A') (A') (A") (A')
                 (A') (A") (A') (A") (A") (A') (A') (A') (A') (A')
                 (A") (A') (A') (A') (A') (A') (A") (A') (A") (A')
                 (A') (A') (A") (A') (A") (A') (A") (A') (A") (A")
                 (A') (A') (A') (A') (A') (A') (A") (A') (A') (A')
                 (A') (A') (A') (A') (A') (A') (A') (A') (A') (A")
                 (A') (A') (A') (A') (A') (A') (A') (A') (A') (A')
 The electronic state of the initial guess is 1-A'.
 Leave Link  401 at Fri Dec  3 17:30:34 2021, MaxMem=  498073600 cpu:       4.1
 (Enter /apps/software//g09/l502.exe)
 Closed shell SCF:
 Requested convergence on RMS density matrix=1.00D-08 within 128 cycles.
 Requested convergence on MAX density matrix=1.00D-06.
 Requested convergence on             energy=1.00D-06.
 No special actions if energy rises.
 Using DIIS extrapolation, IDIIS=  1040.
 Integral symmetry usage will be decided dynamically.
 Keep R1 ints in memory in canonical form, NReq=335022656.
 IEnd=      174488 IEndB=      174488 NGot=   498073600 MDV=   168967301
 LenX=   168967301 LenY=   168915784
 Symmetry not used in FoFDir.
 MinBra= 0 MaxBra= 2 Meth= 1.
 IRaf=       0 NMat=   1 IRICut=       1 DoRegI=T DoRafI=F ISym2E= 0 JSym2E=0.

 Cycle   1  Pass 1  IDiag  1:
 E= -343.139307882248    
 DIIS: error= 6.51D-02 at cycle   1 NSaved=   1.
 NSaved= 1 IEnMin= 1 EnMin= -343.139307882248     IErMin= 1 ErrMin= 6.51D-02
 ErrMax= 6.51D-02 EMaxC= 1.00D-01 BMatC= 6.88D-01 BMatP= 6.88D-01
 IDIUse=3 WtCom= 3.49D-01 WtEn= 6.51D-01
 Coeff-Com:  0.100D+01
 Coeff-En:   0.100D+01
 Coeff:      0.100D+01
 Gap=     0.324 Goal=   None    Shift=    0.000
 GapD=    0.324 DampG=1.000 DampE=0.500 DampFc=0.5000 IDamp=-1.
 Damping current iteration by 5.00D-01
 RMSDP=1.61D-02 MaxDP=4.86D-01              OVMax= 1.51D-01

 Cycle   2  Pass 1  IDiag  1:
 E= -343.310951324319     Delta-E=       -0.171643442071 Rises=F Damp=T
 DIIS: error= 3.19D-02 at cycle   2 NSaved=   2.
 NSaved= 2 IEnMin= 2 EnMin= -343.310951324319     IErMin= 2 ErrMin= 3.19D-02
 ErrMax= 3.19D-02 EMaxC= 1.00D-01 BMatC= 1.53D-01 BMatP= 6.88D-01
 IDIUse=3 WtCom= 6.81D-01 WtEn= 3.19D-01
 Coeff-Com: -0.713D+00 0.171D+01
 Coeff-En:   0.000D+00 0.100D+01
 Coeff:     -0.485D+00 0.149D+01
 Gap=     0.359 Goal=   None    Shift=    0.000
 RMSDP=1.76D-02 MaxDP=8.26D-01 DE=-1.72D-01 OVMax= 4.57D-02

 Cycle   3  Pass 1  IDiag  1:
 E= -343.467737867165     Delta-E=       -0.156786542845 Rises=F Damp=F
 DIIS: error= 7.44D-03 at cycle   3 NSaved=   3.
 NSaved= 3 IEnMin= 3 EnMin= -343.467737867165     IErMin= 3 ErrMin= 7.44D-03
 ErrMax= 7.44D-03 EMaxC= 1.00D-01 BMatC= 3.37D-03 BMatP= 1.53D-01
 IDIUse=3 WtCom= 9.26D-01 WtEn= 7.44D-02
 Coeff-Com: -0.147D+00 0.266D+00 0.881D+00
 Coeff-En:   0.000D+00 0.000D+00 0.100D+01
 Coeff:     -0.136D+00 0.247D+00 0.890D+00
 Gap=     0.353 Goal=   None    Shift=    0.000
 RMSDP=1.99D-03 MaxDP=8.69D-02 DE=-1.57D-01 OVMax= 2.38D-02

 Cycle   4  Pass 1  IDiag  1:
 E= -343.470241824525     Delta-E=       -0.002503957361 Rises=F Damp=F
 DIIS: error= 2.93D-03 at cycle   4 NSaved=   4.
 NSaved= 4 IEnMin= 4 EnMin= -343.470241824525     IErMin= 4 ErrMin= 2.93D-03
 ErrMax= 2.93D-03 EMaxC= 1.00D-01 BMatC= 6.36D-04 BMatP= 3.37D-03
 IDIUse=3 WtCom= 9.71D-01 WtEn= 2.93D-02
 Coeff-Com: -0.170D-01 0.160D-01 0.316D+00 0.685D+00
 Coeff-En:   0.000D+00 0.000D+00 0.000D+00 0.100D+01
 Coeff:     -0.165D-01 0.155D-01 0.307D+00 0.694D+00
 Gap=     0.354 Goal=   None    Shift=    0.000
 RMSDP=1.61D-03 MaxDP=6.59D-02 DE=-2.50D-03 OVMax= 5.83D-03

 Cycle   5  Pass 1  IDiag  1:
 E= -343.470871889591     Delta-E=       -0.000630065066 Rises=F Damp=F
 DIIS: error= 1.16D-03 at cycle   5 NSaved=   5.
 NSaved= 5 IEnMin= 5 EnMin= -343.470871889591     IErMin= 5 ErrMin= 1.16D-03
 ErrMax= 1.16D-03 EMaxC= 1.00D-01 BMatC= 3.64D-05 BMatP= 6.36D-04
 IDIUse=3 WtCom= 9.88D-01 WtEn= 1.16D-02
 Coeff-Com:  0.132D-01-0.237D-01-0.965D-01-0.256D-01 0.113D+01
 Coeff-En:   0.000D+00 0.000D+00 0.000D+00 0.000D+00 0.100D+01
 Coeff:      0.131D-01-0.234D-01-0.953D-01-0.253D-01 0.113D+01
 Gap=     0.355 Goal=   None    Shift=    0.000
 RMSDP=7.58D-04 MaxDP=3.20D-02 DE=-6.30D-04 OVMax= 8.86D-03

 Cycle   6  Pass 1  IDiag  1:
 E= -343.471031220567     Delta-E=       -0.000159330976 Rises=F Damp=F
 DIIS: error= 5.56D-04 at cycle   6 NSaved=   6.
 NSaved= 6 IEnMin= 6 EnMin= -343.471031220567     IErMin= 6 ErrMin= 5.56D-04
 ErrMax= 5.56D-04 EMaxC= 1.00D-01 BMatC= 7.88D-06 BMatP= 3.64D-05
 IDIUse=3 WtCom= 9.94D-01 WtEn= 5.56D-03
 Coeff-Com:  0.249D-03 0.988D-03-0.162D-01-0.115D+00-0.203D+00 0.133D+01
 Coeff-En:   0.000D+00 0.000D+00 0.000D+00 0.000D+00 0.000D+00 0.100D+01
 Coeff:      0.247D-03 0.983D-03-0.161D-01-0.114D+00-0.202D+00 0.133D+01
 Gap=     0.356 Goal=   None    Shift=    0.000
 RMSDP=4.16D-04 MaxDP=1.74D-02 DE=-1.59D-04 OVMax= 5.79D-03

 Cycle   7  Pass 1  IDiag  1:
 E= -343.471079793464     Delta-E=       -0.000048572897 Rises=F Damp=F
 DIIS: error= 2.42D-04 at cycle   7 NSaved=   7.
 NSaved= 7 IEnMin= 7 EnMin= -343.471079793464     IErMin= 7 ErrMin= 2.42D-04
 ErrMax= 2.42D-04 EMaxC= 1.00D-01 BMatC= 1.37D-06 BMatP= 7.88D-06
 IDIUse=3 WtCom= 9.98D-01 WtEn= 2.42D-03
 Coeff-Com: -0.217D-02 0.358D-02 0.230D-01 0.105D-01-0.112D+00-0.302D+00
 Coeff-Com:  0.138D+01
 Coeff-En:   0.000D+00 0.000D+00 0.000D+00 0.000D+00 0.000D+00 0.000D+00
 Coeff-En:   0.100D+01
 Coeff:     -0.217D-02 0.357D-02 0.230D-01 0.105D-01-0.112D+00-0.301D+00
 Coeff:      0.138D+01
 Gap=     0.356 Goal=   None    Shift=    0.000
 RMSDP=1.70D-04 MaxDP=5.90D-03 DE=-4.86D-05 OVMax= 3.01D-03

 Cycle   8  Pass 1  IDiag  1:
 E= -343.471087849895     Delta-E=       -0.000008056431 Rises=F Damp=F
 DIIS: error= 9.22D-05 at cycle   8 NSaved=   8.
 NSaved= 8 IEnMin= 8 EnMin= -343.471087849895     IErMin= 8 ErrMin= 9.22D-05
 ErrMax= 9.22D-05 EMaxC= 1.00D-01 BMatC= 2.45D-07 BMatP= 1.37D-06
 IDIUse=1 WtCom= 1.00D+00 WtEn= 0.00D+00
 Coeff-Com: -0.786D-03 0.105D-02 0.110D-01 0.186D-01-0.648D-03-0.329D+00
 Coeff-Com:  0.446D+00 0.854D+00
 Coeff:     -0.786D-03 0.105D-02 0.110D-01 0.186D-01-0.648D-03-0.329D+00
 Coeff:      0.446D+00 0.854D+00
 Gap=     0.356 Goal=   None    Shift=    0.000
 RMSDP=3.72D-05 MaxDP=1.26D-03 DE=-8.06D-06 OVMax= 7.07D-04

 Cycle   9  Pass 1  IDiag  1:
 E= -343.471088515489     Delta-E=       -0.000000665593 Rises=F Damp=F
 DIIS: error= 1.58D-05 at cycle   9 NSaved=   9.
 NSaved= 9 IEnMin= 9 EnMin= -343.471088515489     IErMin= 9 ErrMin= 1.58D-05
 ErrMax= 1.58D-05 EMaxC= 1.00D-01 BMatC= 1.34D-08 BMatP= 2.45D-07
 IDIUse=1 WtCom= 1.00D+00 WtEn= 0.00D+00
 Coeff-Com:  0.259D-03-0.422D-03-0.264D-02-0.411D-02 0.136D-01 0.536D-01
 Coeff-Com: -0.164D+00-0.276D-01 0.113D+01
 Coeff:      0.259D-03-0.422D-03-0.264D-02-0.411D-02 0.136D-01 0.536D-01
 Coeff:     -0.164D+00-0.276D-01 0.113D+01
 Gap=     0.356 Goal=   None    Shift=    0.000
 RMSDP=5.65D-06 MaxDP=1.42D-04 DE=-6.66D-07 OVMax= 8.65D-05

 Cycle  10  Pass 1  IDiag  1:
 E= -343.471088543353     Delta-E=       -0.000000027864 Rises=F Damp=F
 DIIS: error= 6.39D-06 at cycle  10 NSaved=  10.
 NSaved=10 IEnMin=10 EnMin= -343.471088543353     IErMin=10 ErrMin= 6.39D-06
 ErrMax= 6.39D-06 EMaxC= 1.00D-01 BMatC= 1.55D-09 BMatP= 1.34D-08
 IDIUse=1 WtCom= 1.00D+00 WtEn= 0.00D+00
 Coeff-Com:  0.857D-04-0.131D-03-0.765D-03-0.182D-02 0.194D-03 0.253D-01
 Coeff-Com: -0.310D-01-0.744D-01-0.562D-01 0.114D+01
 Coeff:      0.857D-04-0.131D-03-0.765D-03-0.182D-02 0.194D-03 0.253D-01
 Coeff:     -0.310D-01-0.744D-01-0.562D-01 0.114D+01
 Gap=     0.356 Goal=   None    Shift=    0.000
 RMSDP=1.89D-06 MaxDP=6.74D-05 DE=-2.79D-08 OVMax= 2.62D-05

 Cycle  11  Pass 1  IDiag  1:
 E= -343.471088547006     Delta-E=       -0.000000003653 Rises=F Damp=F
 DIIS: error= 1.91D-06 at cycle  11 NSaved=  11.
 NSaved=11 IEnMin=11 EnMin= -343.471088547006     IErMin=11 ErrMin= 1.91D-06
 ErrMax= 1.91D-06 EMaxC= 1.00D-01 BMatC= 2.48D-10 BMatP= 1.55D-09
 IDIUse=1 WtCom= 1.00D+00 WtEn= 0.00D+00
 Coeff-Com: -0.221D-04 0.344D-04 0.380D-03 0.326D-03-0.217D-02-0.566D-02
 Coeff-Com:  0.251D-01-0.713D-02-0.209D+00 0.176D+00 0.102D+01
 Coeff:     -0.221D-04 0.344D-04 0.380D-03 0.326D-03-0.217D-02-0.566D-02
 Coeff:      0.251D-01-0.713D-02-0.209D+00 0.176D+00 0.102D+01
 Gap=     0.356 Goal=   None    Shift=    0.000
 RMSDP=9.05D-07 MaxDP=4.19D-05 DE=-3.65D-09 OVMax= 1.25D-05

 Cycle  12  Pass 1  IDiag  1:
 E= -343.471088547626     Delta-E=       -0.000000000620 Rises=F Damp=F
 DIIS: error= 5.69D-07 at cycle  12 NSaved=  12.
 NSaved=12 IEnMin=12 EnMin= -343.471088547626     IErMin=12 ErrMin= 5.69D-07
 ErrMax= 5.69D-07 EMaxC= 1.00D-01 BMatC= 1.57D-11 BMatP= 2.48D-10
 IDIUse=1 WtCom= 1.00D+00 WtEn= 0.00D+00
 Coeff-Com: -0.312D-05 0.390D-05 0.283D-04 0.997D-04 0.330D-03-0.168D-02
 Coeff-Com: -0.819D-04 0.715D-02 0.401D-01-0.136D+00-0.178D+00 0.127D+01
 Coeff:     -0.312D-05 0.390D-05 0.283D-04 0.997D-04 0.330D-03-0.168D-02
 Coeff:     -0.819D-04 0.715D-02 0.401D-01-0.136D+00-0.178D+00 0.127D+01
 Gap=     0.356 Goal=   None    Shift=    0.000
 RMSDP=4.50D-07 MaxDP=2.23D-05 DE=-6.20D-10 OVMax= 4.10D-06

 Cycle  13  Pass 1  IDiag  1:
 E= -343.471088547679     Delta-E=       -0.000000000053 Rises=F Damp=F
 DIIS: error= 1.16D-07 at cycle  13 NSaved=  13.
 NSaved=13 IEnMin=13 EnMin= -343.471088547679     IErMin=13 ErrMin= 1.16D-07
 ErrMax= 1.16D-07 EMaxC= 1.00D-01 BMatC= 1.42D-12 BMatP= 1.57D-11
 IDIUse=1 WtCom= 1.00D+00 WtEn= 0.00D+00
 Coeff-Com:  0.182D-05-0.284D-05-0.285D-04-0.353D-04 0.115D-03 0.523D-03
 Coeff-Com: -0.156D-02-0.146D-02 0.132D-01 0.560D-03-0.547D-01-0.127D+00
 Coeff-Com:  0.117D+01
 Coeff:      0.182D-05-0.284D-05-0.285D-04-0.353D-04 0.115D-03 0.523D-03
 Coeff:     -0.156D-02-0.146D-02 0.132D-01 0.560D-03-0.547D-01-0.127D+00
 Coeff:      0.117D+01
 Gap=     0.356 Goal=   None    Shift=    0.000
 RMSDP=1.78D-07 MaxDP=7.58D-06 DE=-5.34D-11 OVMax= 8.61D-07

 Cycle  14  Pass 1  IDiag  1:
 E= -343.471088547686     Delta-E=       -0.000000000006 Rises=F Damp=F
 DIIS: error= 3.71D-08 at cycle  14 NSaved=  14.
 NSaved=14 IEnMin=14 EnMin= -343.471088547686     IErMin=14 ErrMin= 3.71D-08
 ErrMax= 3.71D-08 EMaxC= 1.00D-01 BMatC= 2.27D-13 BMatP= 1.42D-12
 IDIUse=1 WtCom= 1.00D+00 WtEn= 0.00D+00
 Coeff-Com:  0.783D-06-0.111D-05-0.870D-05-0.181D-04-0.124D-04 0.309D-03
 Coeff-Com: -0.177D-03-0.144D-02-0.190D-02 0.141D-01 0.113D-01-0.163D+00
 Coeff-Com:  0.110D+00 0.103D+01
 Coeff:      0.783D-06-0.111D-05-0.870D-05-0.181D-04-0.124D-04 0.309D-03
 Coeff:     -0.177D-03-0.144D-02-0.190D-02 0.141D-01 0.113D-01-0.163D+00
 Coeff:      0.110D+00 0.103D+01
 Gap=     0.356 Goal=   None    Shift=    0.000
 RMSDP=5.30D-08 MaxDP=1.88D-06 DE=-6.48D-12 OVMax= 4.64D-07

 Cycle  15  Pass 1  IDiag  1:
 E= -343.471088547687     Delta-E=       -0.000000000001 Rises=F Damp=F
 DIIS: error= 9.55D-09 at cycle  15 NSaved=  15.
 NSaved=15 IEnMin=15 EnMin= -343.471088547687     IErMin=15 ErrMin= 9.55D-09
 ErrMax= 9.55D-09 EMaxC= 1.00D-01 BMatC= 1.63D-14 BMatP= 2.27D-13
 IDIUse=1 WtCom= 1.00D+00 WtEn= 0.00D+00
 Coeff-Com: -0.260D-06 0.398D-06 0.381D-05 0.583D-05-0.981D-05-0.957D-04
 Coeff-Com:  0.207D-03 0.186D-03-0.675D-03-0.241D-02 0.395D-02 0.387D-01
 Coeff-Com: -0.126D+00-0.203D+00 0.129D+01
 Coeff:     -0.260D-06 0.398D-06 0.381D-05 0.583D-05-0.981D-05-0.957D-04
 Coeff:      0.207D-03 0.186D-03-0.675D-03-0.241D-02 0.395D-02 0.387D-01
 Coeff:     -0.126D+00-0.203D+00 0.129D+01
 Gap=     0.356 Goal=   None    Shift=    0.000
 RMSDP=1.52D-08 MaxDP=5.65D-07 DE=-7.96D-13 OVMax= 1.13D-07

 Cycle  16  Pass 1  IDiag  1:
 E= -343.471088547684     Delta-E=        0.000000000003 Rises=F Damp=F
 DIIS: error= 2.31D-09 at cycle  16 NSaved=  16.
 NSaved=16 IEnMin=15 EnMin= -343.471088547687     IErMin=16 ErrMin= 2.31D-09
 ErrMax= 2.31D-09 EMaxC= 1.00D-01 BMatC= 7.58D-16 BMatP= 1.63D-14
 IDIUse=1 WtCom= 1.00D+00 WtEn= 0.00D+00
 Large coefficients: NSaved= 16 BigCof=    0.00 CofMax=   10.00 Det=-1.13D-15
 Inversion failed.  Reducing to 15 matrices.
 Coeff-Com:  0.378D-08-0.497D-06-0.497D-06 0.319D-05 0.671D-05-0.364D-04
 Coeff-Com: -0.301D-05 0.369D-03-0.225D-03-0.179D-02-0.154D-02 0.325D-01
 Coeff-Com: -0.122D-01-0.332D+00 0.131D+01
 Coeff:      0.378D-08-0.497D-06-0.497D-06 0.319D-05 0.671D-05-0.364D-04
 Coeff:     -0.301D-05 0.369D-03-0.225D-03-0.179D-02-0.154D-02 0.325D-01
 Coeff:     -0.122D-01-0.332D+00 0.131D+01
 Gap=     0.356 Goal=   None    Shift=    0.000
 RMSDP=2.10D-09 MaxDP=1.60D-07 DE= 2.96D-12 OVMax= 2.00D-08

 SCF Done:  E(RHF) =  -343.471088548     A.U. after   16 cycles
             Convg  =    0.2100D-08             -V/T =  2.0013
 KE= 3.430329138587D+02 PE=-1.445664638387D+03 EE= 4.374627968291D+02
 Leave Link  502 at Fri Dec  3 17:31:01 2021, MaxMem=  498073600 cpu:     160.9
 (Enter /apps/software//g09/l801.exe)
 ExpMin= 3.60D-02 ExpMax= 8.59D+03 ExpMxC= 1.30D+03 IAcc=3 IRadAn=         5 AccDes= 0.00D+00
 HarFok:  IExCor=  205 AccDes= 0.00D+00 IRadAn=         5 IDoV=-2
 ScaDFX=  1.000000  1.000000  1.000000  1.000000
 Largest valence mixing into a core orbital is  1.44D-04
 Largest core mixing into a valence orbital is  4.38D-05
 Range of M.O.s used for correlation:     9   218
 NBasis=   218 NAE=    28 NBE=    28 NFC=     8 NFV=     0
 NROrb=    210 NOA=    20 NOB=    20 NVA=   190 NVB=   190

 **** Warning!!: The largest alpha MO coefficient is  0.21211905D+03

 Leave Link  801 at Fri Dec  3 17:31:01 2021, MaxMem=  498073600 cpu:       1.6
 (Enter /apps/software//g09/l906.exe)
 Frozen-core derivative calculation, NFC=   8 NFV=   0.
 FulOut=F Deriv=T AODrv=F NAtomX=    14
   MMem=          85  MDisk=          20 MDiskD=          20
  W3Min=     1379504 MinDsk=     1920715 NBas6D=         226
 NBas2D=       25981    NTT=       25651    LW2=     2040000
    MDV=   497480543 MDiskM=       30449 NBas2p=       25337
 Fully direct method using O(ONN) memory.
 IMap=   1   2   3   4   5   6   7   8   9  10  11  12  13  14  15  16  17  18  19  20
 IMap=  21  22  23  24  25  26  27  28
 JobTyp=1 Pass  1:  I=   9 to  20 NPSUse=  6 ParTrn=T ParDer=T DoDerP=T.
 JobTyp=1 Pass  2:  I=  21 to  28 NPSUse=  6 ParTrn=T ParDer=T DoDerP=T.
 Spin components of T(2) and E(2):
     alpha-alpha T2 =       0.5499081492D-01 E2=     -0.1510658315D+00
     alpha-beta  T2 =       0.2987083895D+00 E2=     -0.8490479126D+00
     beta-beta   T2 =       0.5499081492D-01 E2=     -0.1510658315D+00
 The integrals were generated   2 times.
 ANorm=    0.1186882479D+01
 E2 =    -0.1151179576D+01 EUMP2 =    -0.34462226812320D+03
 Leave Link  906 at Fri Dec  3 17:31:51 2021, MaxMem=  498073600 cpu:     297.6
 (Enter /apps/software//g09/l1002.exe)
 Minotr:  Closed shell wavefunction.
          Computing MP2/KS-MP2 derivatives.
          Using Z-Vector for PSCF gradient.
          Skipping F1 and S1 gradient terms here.
          Frozen-core window.
          Direct CPHF calculation.
          Differentiating once with respect to electric field.
                with respect to dipole field.
          Electric field/nuclear overlap derivatives assumed to be zero.
          Using symmetry in CPHF.
          Requested convergence is 1.0D-10 RMS, and 1.0D-09 maximum.
          NewPWx=F KeepS1=T KeepF1=T KeepIn=T MapXYZ=F SortEE=F KeepMc=T.
          MDV=     498073484 using IRadAn=       0.
          Keep R1 ints in memory in canonical form, NReq=329821395.
 Symmetry not used in FoFDir.
 MinBra= 0 MaxBra= 2 Meth= 1.
 IRaf=       0 NMat=   1 IRICut=       1 DoRegI=T DoRafI=F ISym2E= 0 JSym2E=0.
          Solving linear equations separately, MaxMat=       0.
          There are     1 degrees of freedom in the 1st order CPHF.  IDoFFX=0.
 LinEq1:  Iter=  0 NonCon=     1 RMS=4.33D-03 Max=1.12D-01
 AX will form     1 AO Fock derivatives at one time.
 LinEq1:  Iter=  1 NonCon=     1 RMS=1.38D-03 Max=4.36D-02
 LinEq1:  Iter=  2 NonCon=     1 RMS=5.94D-04 Max=1.47D-02
 LinEq1:  Iter=  3 NonCon=     1 RMS=2.75D-04 Max=7.34D-03
 LinEq1:  Iter=  4 NonCon=     1 RMS=8.14D-05 Max=1.51D-03
 LinEq1:  Iter=  5 NonCon=     1 RMS=2.08D-05 Max=5.12D-04
 LinEq1:  Iter=  6 NonCon=     1 RMS=7.54D-06 Max=2.91D-04
 LinEq1:  Iter=  7 NonCon=     1 RMS=3.27D-06 Max=6.85D-05
 LinEq1:  Iter=  8 NonCon=     1 RMS=8.86D-07 Max=1.88D-05
 LinEq1:  Iter=  9 NonCon=     1 RMS=2.36D-07 Max=4.44D-06
 LinEq1:  Iter= 10 NonCon=     1 RMS=8.65D-08 Max=1.96D-06
 LinEq1:  Iter= 11 NonCon=     1 RMS=1.87D-08 Max=2.34D-07
 LinEq1:  Iter= 12 NonCon=     1 RMS=4.33D-09 Max=6.14D-08
 LinEq1:  Iter= 13 NonCon=     1 RMS=1.31D-09 Max=2.34D-08
 LinEq1:  Iter= 14 NonCon=     1 RMS=2.96D-10 Max=3.27D-09
 LinEq1:  Iter= 15 NonCon=     0 RMS=4.78D-11 Max=6.50D-10
 Linear equations converged to 1.000D-10 1.000D-09 after    15 iterations.
 End of Minotr Frequency-dependent properties file   721 does not exist.
 End of Minotr Frequency-dependent properties file   722 does not exist.
 Leave Link 1002 at Fri Dec  3 17:32:08 2021, MaxMem=  498073600 cpu:     100.6
 (Enter /apps/software//g09/l601.exe)
 Copying SCF densities to generalized density rwf, IOpCl= 0 IROHF=0.

 **********************************************************************

            Population analysis using the MP2 density.

 **********************************************************************

 Orbital symmetries:
       Occupied  (A') (A') (A') (A') (A') (A') (A') (A') (A') (A')
                 (A') (A') (A') (A') (A') (A') (A') (A') (A') (A')
                 (A') (A") (A') (A') (A") (A') (A") (A")
       Virtual   (A') (A") (A') (A') (A') (A") (A') (A') (A") (A')
                 (A') (A") (A") (A') (A') (A') (A') (A") (A") (A')
                 (A') (A") (A') (A") (A') (A') (A') (A') (A') (A')
                 (A') (A') (A') (A') (A") (A") (A') (A') (A') (A')
                 (A') (A') (A") (A') (A') (A') (A') (A') (A') (A')
                 (A') (A') (A') (A') (A') (A") (A') (A') (A') (A')
                 (A') (A") (A") (A') (A') (A") (A") (A') (A") (A")
                 (A') (A') (A') (A') (A') (A') (A') (A') (A') (A')
                 (A') (A') (A') (A') (A') (A') (A") (A') (A') (A")
                 (A") (A") (A") (A') (A') (A") (A") (A') (A") (A')
                 (A') (A') (A') (A') (A') (A") (A') (A") (A") (A')
                 (A") (A') (A') (A') (A") (A') (A") (A') (A') (A")
                 (A') (A") (A') (A') (A') (A') (A") (A') (A") (A')
                 (A") (A') (A") (A') (A") (A') (A') (A') (A') (A')
                 (A') (A') (A') (A') (A') (A") (A') (A') (A') (A')
                 (A') (A") (A") (A") (A") (A') (A") (A') (A") (A")
                 (A') (A') (A') (A') (A') (A') (A") (A') (A') (A')
                 (A') (A') (A') (A') (A') (A') (A') (A') (A') (A")
                 (A') (A') (A') (A') (A') (A') (A') (A') (A') (A')
 The electronic state is 1-A'.
 Alpha  occ. eigenvalues --  -20.52831 -11.33613 -11.27797 -11.27797 -11.27417
 Alpha  occ. eigenvalues --  -11.27272 -11.26222 -11.26220  -1.37022  -1.15332
 Alpha  occ. eigenvalues --   -1.07947  -1.04298  -0.91256  -0.88964  -0.75829
 Alpha  occ. eigenvalues --   -0.73705  -0.71487  -0.64354  -0.62697  -0.59390
 Alpha  occ. eigenvalues --   -0.59365  -0.55291  -0.54354  -0.51470  -0.47955
 Alpha  occ. eigenvalues --   -0.42325  -0.40698  -0.32398
 Alpha virt. eigenvalues --    0.03222   0.03424   0.04154   0.05133   0.06415
 Alpha virt. eigenvalues --    0.06940   0.07288   0.08843   0.11668   0.12829
 Alpha virt. eigenvalues --    0.13583   0.13948   0.14563   0.16805   0.16955
 Alpha virt. eigenvalues --    0.17506   0.17809   0.18194   0.18713   0.18982
 Alpha virt. eigenvalues --    0.19688   0.19782   0.20221   0.20670   0.20889
 Alpha virt. eigenvalues --    0.22194   0.22832   0.23433   0.23709   0.26942
 Alpha virt. eigenvalues --    0.27482   0.28797   0.28818   0.29138   0.30927
 Alpha virt. eigenvalues --    0.30996   0.31721   0.32557   0.34393   0.37623
 Alpha virt. eigenvalues --    0.38516   0.39710   0.40098   0.41663   0.42540
 Alpha virt. eigenvalues --    0.42593   0.44642   0.45429   0.48086   0.48881
 Alpha virt. eigenvalues --    0.53031   0.55761   0.56949   0.56973   0.62524
 Alpha virt. eigenvalues --    0.67104   0.67489   0.71055   0.71331   0.71777
 Alpha virt. eigenvalues --    0.72987   0.73455   0.73982   0.74645   0.78064
 Alpha virt. eigenvalues --    0.78562   0.79253   0.83025   0.85281   0.85586
 Alpha virt. eigenvalues --    0.86727   0.92047   0.92167   0.95625   0.96597
 Alpha virt. eigenvalues --    0.97235   0.98538   0.99983   1.00874   1.03360
 Alpha virt. eigenvalues --    1.04531   1.08574   1.10006   1.12199   1.12770
 Alpha virt. eigenvalues --    1.16453   1.18119   1.19860   1.20218   1.24179
 Alpha virt. eigenvalues --    1.25794   1.26050   1.30991   1.32021   1.35856
 Alpha virt. eigenvalues --    1.38028   1.39885   1.43195   1.48652   1.56928
 Alpha virt. eigenvalues --    1.63443   1.68611   1.71585   1.73729   1.75308
 Alpha virt. eigenvalues --    1.77057   1.80714   1.81108   1.85428   1.87253
 Alpha virt. eigenvalues --    1.90225   1.92775   1.95145   1.96622   1.98778
 Alpha virt. eigenvalues --    2.00514   2.00630   2.05020   2.07131   2.10443
 Alpha virt. eigenvalues --    2.18390   2.19436   2.20523   2.21261   2.22594
 Alpha virt. eigenvalues --    2.26173   2.27561   2.29985   2.33246   2.33719
 Alpha virt. eigenvalues --    2.41022   2.41143   2.50641   2.54483   2.68822
 Alpha virt. eigenvalues --    2.74263   2.74627   2.74670   2.79593   2.84429
 Alpha virt. eigenvalues --    2.92402   2.94048   2.94526   2.96184   2.98108
 Alpha virt. eigenvalues --    2.98963   2.99730   3.01559   3.03252   3.04432
 Alpha virt. eigenvalues --    3.04793   3.13266   3.13277   3.21079   3.22680
 Alpha virt. eigenvalues --    3.23527   3.32512   3.33566   3.34110   3.36931
 Alpha virt. eigenvalues --    3.54828   3.57096   3.59632   3.67924   3.68412
 Alpha virt. eigenvalues --    3.74684   3.75895   3.86093   3.88680   3.91380
 Alpha virt. eigenvalues --    4.04520   4.07070   4.34048   4.35451   4.39840
 Alpha virt. eigenvalues --    4.51430   4.59924   4.67377   5.23529   5.63372
 Alpha virt. eigenvalues --    5.80568   6.32369  24.74052  24.95800  25.01857
 Alpha virt. eigenvalues --   25.02915  25.28222  25.34052  25.36358  51.72628
          Condensed to atoms (all electrons):
              1          2          3          4          5          6
     1  C   13.548661  -5.710921  -6.520342   4.509753  -3.474056  -0.813332
     2  C   -5.710921  13.106780   4.509666  -2.595109   1.639136   2.225462
     3  C   -6.520342   4.509666  13.548412  -5.710802   4.381321  -0.813039
     4  C    4.509753  -2.595109  -5.710802  13.106919  -6.848819   2.225056
     5  C   -3.474056   1.639136   4.381321  -6.848819  14.777408  -3.268996
     6  C   -0.813332   2.225462  -0.813039   2.225056  -3.268996  10.569757
     7  C    4.381494  -6.848927  -3.474040   1.639181  -2.101105  -3.269741
     8  H   -0.108620   0.061245   0.203495  -0.379163   0.811392  -0.273552
     9  H    0.203507  -0.379170  -0.108620   0.061247  -0.073419  -0.273598
    10  H   -0.467736   0.813123   0.244919  -0.105223   0.086210   0.140837
    11  H    0.869420  -0.427709  -0.467008   0.210714  -0.112469  -0.030229
    12  H   -0.467006   0.210711   0.869409  -0.427701   0.228318  -0.030218
    13  H    0.244911  -0.105219  -0.467709   0.813099  -0.444958   0.140813
    14  O    0.005481  -0.056231   0.005491  -0.056222  -0.026982   0.037913
              7          8          9         10         11         12
     1  C    4.381494  -0.108620   0.203507  -0.467736   0.869420  -0.467006
     2  C   -6.848927   0.061245  -0.379170   0.813123  -0.427709   0.210711
     3  C   -3.474040   0.203495  -0.108620   0.244919  -0.467008   0.869409
     4  C    1.639181  -0.379163   0.061247  -0.105223   0.210714  -0.427701
     5  C   -2.101105   0.811392  -0.073419   0.086210  -0.112469   0.228318
     6  C   -3.269741  -0.273552  -0.273598   0.140837  -0.030229  -0.030218
     7  C   14.778005  -0.073415   0.811437  -0.444988   0.228325  -0.112468
     8  H   -0.073415   0.556007  -0.003349   0.002506  -0.002791   0.008260
     9  H    0.811437  -0.003349   0.556011  -0.038174   0.008261  -0.002791
    10  H   -0.444988   0.002506  -0.038174   0.598065  -0.037242   0.009073
    11  H    0.228325  -0.002791   0.008261  -0.037242   0.599007  -0.040764
    12  H   -0.112468   0.008260  -0.002791   0.009073  -0.040764   0.599008
    13  H    0.086209  -0.038169   0.002506  -0.003331   0.009073  -0.037240
    14  O   -0.026997   0.000686   0.000682   0.000663  -0.000002  -0.000002
             13         14
     1  C    0.244911   0.005481
     2  C   -0.105219  -0.056231
     3  C   -0.467709   0.005491
     4  C    0.813099  -0.056222
     5  C   -0.444958  -0.026982
     6  C    0.140813   0.037913
     7  C    0.086209  -0.026997
     8  H   -0.038169   0.000686
     9  H    0.002506   0.000682
    10  H   -0.003331   0.000663
    11  H    0.009073  -0.000002
    12  H   -0.037240  -0.000002
    13  H    0.598049   0.000663
    14  O    0.000663   8.374009
 Mulliken atomic charges:
              1
     1  C   -0.201214
     2  C   -0.442836
     3  C   -0.201151
     4  C   -0.442930
     5  C    0.427021
     6  C   -0.567132
     7  C    0.427029
     8  H    0.235468
     9  H    0.235471
    10  H    0.201297
    11  H    0.193414
    12  H    0.193411
    13  H    0.201304
    14  O   -0.259153
 Sum of Mulliken atomic charges =   0.00000
 Mulliken charges with hydrogens summed into heavy atoms:
              1
     1  C   -0.007800
     2  C   -0.241539
     3  C   -0.007740
     4  C   -0.241625
     5  C    0.662489
     6  C   -0.567132
     7  C    0.662500
    14  O   -0.259153
 Sum of Mulliken charges with hydrogens summed into heavy atoms =   0.00000
 Electronic spatial extent (au):  <R**2>=            877.7787
 Charge=              0.0000 electrons
 Dipole moment (field-independent basis, Debye):
    X=              0.0001    Y=             -4.4699    Z=              0.0000  Tot=              4.4699
 Quadrupole moment (field-independent basis, Debye-Ang):
   XX=            -39.7818   YY=            -53.8723   ZZ=            -50.3584
   XY=              0.0003   XZ=              0.0000   YZ=              0.0000
 Traceless Quadrupole moment (field-independent basis, Debye-Ang):
   XX=              8.2223   YY=             -5.8681   ZZ=             -2.3542
   XY=              0.0003   XZ=              0.0000   YZ=              0.0000
 Octapole moment (field-independent basis, Debye-Ang**2):
  XXX=              0.0002  YYY=            -40.4317  ZZZ=              0.0000  XYY=              0.0004
  XXY=             -0.5905  XXZ=              0.0000  XZZ=              0.0000  YZZ=              6.0476
  YYZ=              0.0000  XYZ=              0.0000
 Hexadecapole moment (field-independent basis, Debye-Ang**3):
 XXXX=           -397.1849 YYYY=           -759.5608 ZZZZ=            -58.6429 XXXY=              0.0006
 XXXZ=              0.0000 YYYX=              0.0003 YYYZ=              0.0000 ZZZX=              0.0000
 ZZZY=              0.0000 XXYY=           -172.7101 XXZZ=            -92.6229 YYZZ=           -132.0670
 XXYZ=              0.0000 YYXZ=              0.0000 ZZXY=             -0.0004
 N-N= 3.216978391510D+02 E-N=-1.446874524409D+03  KE= 3.444902189724D+02
 Symmetry A'   KE= 3.341667397119D+02
 Symmetry A"   KE= 1.032347926052D+01
 No NMR shielding tensors so no spin-rotation constants.
 Leave Link  601 at Fri Dec  3 17:32:08 2021, MaxMem=  498073600 cpu:       2.5
 (Enter /apps/software//g09/l9999.exe)
 1\1\GINC-DLT01\SP\RMP2-FC\6-311++G(d,p)\C7H6O1\ITAMAR\03-Dec-2021\0\\#
 P MP2/6-311++G** DENSITY=MP2\\Hepta-O\\0,1\C,0,0.680562,-1.846819,0.\C
 ,0,1.562598,-0.718338,0.\C,0,-0.680532,-1.846844,0.\C,0,-1.562607,-0.7
 18398,0.\C,0,-1.284295,0.611249,0.\C,0,0.,1.327143,0.\C,0,1.284302,0.6
 11299,0.\H,0,-2.125603,1.297971,0.\H,0,2.125631,1.297991,0.\H,0,2.6188
 69,-0.974154,0.\H,0,1.168314,-2.816619,0.\H,0,-1.168248,-2.816668,0.\H
 ,0,-2.618873,-0.974232,0.\O,0,-0.000031,2.558744,0.\\Version=EM64L-G09
 RevA.02\State=1-A'\HF=-343.4710885\MP2=-344.6222681\RMSD=2.100e-09\Dip
 ole=0.0000344,-1.7586097,0.\Quadrupole=6.1131128,-4.3628114,-1.7503015
 ,0.0002318,0.,0.\PG=CS [SG(C7H6O1)]\\@


 IT MATTERS NOT HOW DEEP YOU PLOW,
 BUT HOW LONG YOU STAY IN THE FURROW.
 Job cpu time:  0 days  0 hours  9 minutes 31.0 seconds.
 File lengths (MBytes):  RWF=     23 Int=      0 D2E=      0 Chk=      5 Scr=      1
 Normal termination of Gaussian 09 at Fri Dec  3 17:32:08 2021.
