 Entering Link 1 = D:\G09W\l1.exe PID=     11560.
  
 Copyright (c) 1988,1990,1992,1993,1995,1998,2003,2009,2013,
            Gaussian, Inc.  All Rights Reserved.
  
 This is part of the Gaussian(R) 09 program.  It is based on
 the Gaussian(R) 03 system (copyright 2003, Gaussian, Inc.),
 the Gaussian(R) 98 system (copyright 1998, Gaussian, Inc.),
 the Gaussian(R) 94 system (copyright 1995, Gaussian, Inc.),
 the Gaussian 92(TM) system (copyright 1992, Gaussian, Inc.),
 the Gaussian 90(TM) system (copyright 1990, Gaussian, Inc.),
 the Gaussian 88(TM) system (copyright 1988, Gaussian, Inc.),
 the Gaussian 86(TM) system (copyright 1986, Carnegie Mellon
 University), and the Gaussian 82(TM) system (copyright 1983,
 Carnegie Mellon University). Gaussian is a federally registered
 trademark of Gaussian, Inc.
  
 This software contains proprietary and confidential information,
 including trade secrets, belonging to Gaussian, Inc.
  
 This software is provided under written license and may be
 used, copied, transmitted, or stored only in accord with that
 written license.
  
 The following legend is applicable only to US Government
 contracts under FAR:
  
                    RESTRICTED RIGHTS LEGEND
  
 Use, reproduction and disclosure by the US Government is
 subject to restrictions as set forth in subparagraphs (a)
 and (c) of the Commercial Computer Software - Restricted
 Rights clause in FAR 52.227-19.
  
 Gaussian, Inc.
 340 Quinnipiac St., Bldg. 40, Wallingford CT 06492
  
  
 ---------------------------------------------------------------
 Warning -- This program may not be used in any manner that
 competes with the business of Gaussian, Inc. or will provide
 assistance to any competitor of Gaussian, Inc.  The licensee
 of this program is prohibited from giving any competitor of
 Gaussian, Inc. access to this program.  By using this program,
 the user acknowledges that Gaussian, Inc. is engaged in the
 business of creating and licensing software in the field of
 computational chemistry and represents and warrants to the
 licensee that it is not a competitor of Gaussian, Inc. and that
 it will not use this program in any manner prohibited above.
 ---------------------------------------------------------------
  

 Cite this work as:
 Gaussian 09, Revision D.01,
 M. J. Frisch, G. W. Trucks, H. B. Schlegel, G. E. Scuseria, 
 M. A. Robb, J. R. Cheeseman, G. Scalmani, V. Barone, B. Mennucci, 
 G. A. Petersson, H. Nakatsuji, M. Caricato, X. Li, H. P. Hratchian, 
 A. F. Izmaylov, J. Bloino, G. Zheng, J. L. Sonnenberg, M. Hada, 
 M. Ehara, K. Toyota, R. Fukuda, J. Hasegawa, M. Ishida, T. Nakajima, 
 Y. Honda, O. Kitao, H. Nakai, T. Vreven, J. A. Montgomery, Jr., 
 J. E. Peralta, F. Ogliaro, M. Bearpark, J. J. Heyd, E. Brothers, 
 K. N. Kudin, V. N. Staroverov, T. Keith, R. Kobayashi, J. Normand, 
 K. Raghavachari, A. Rendell, J. C. Burant, S. S. Iyengar, J. Tomasi, 
 M. Cossi, N. Rega, J. M. Millam, M. Klene, J. E. Knox, J. B. Cross, 
 V. Bakken, C. Adamo, J. Jaramillo, R. Gomperts, R. E. Stratmann, 
 O. Yazyev, A. J. Austin, R. Cammi, C. Pomelli, J. W. Ochterski, 
 R. L. Martin, K. Morokuma, V. G. Zakrzewski, G. A. Voth, 
 P. Salvador, J. J. Dannenberg, S. Dapprich, A. D. Daniels, 
 O. Farkas, J. B. Foresman, J. V. Ortiz, J. Cioslowski, 
 and D. J. Fox, Gaussian, Inc., Wallingford CT, 2013.
 
 ******************************************
 Gaussian 09:  IA32W-G09RevD.01 24-Apr-2013
                15-Feb-2025 
 ******************************************
 %nprocshared=4
 Will use up to    4 processors via shared memory.
 %chk=E:\- 5 Doutorado\Projetos\0 - aromaticidade roberta\c·lculos\Aromaticity-te
 st-set - mine\C6H6\opt\3-sp\SP.chk
 ------------------------------------
 #P MP2/6-311++G** nosymm Density=MP2
 ------------------------------------
 1/30=1,38=1/1;
 2/12=2,15=1,17=6,18=5,40=1/2;
 3/5=4,6=6,7=1111,11=9,16=1,25=1,30=1,71=1/1,2,3;
 4//1;
 5/5=2,38=5/2;
 8/6=4,10=2/1;
 9/15=1,16=-3/6;
 10/5=1,13=10,31=1/2;
 6/7=2,8=2,9=2,10=2,22=2/1;
 99/5=1,9=1/99;
 Leave Link    1 at Sat Feb 15 15:07:04 2025, MaxMem=           0 cpu:         0.0
 (Enter D:\G09W\l101.exe)
 ----
 14-H
 ----
 Symbolic Z-matrix:
 Charge =  0 Multiplicity = 1
 C                    -1.21263   0.70011   0. 
 C                    0.         1.40022   0. 
 C                     1.21263   0.70011   0. 
 C                     1.21263  -0.70011   0. 
 C                     0.       -1.40022   0. 
 C                    -1.21263  -0.70011   0. 
 H                    -2.15378   1.24349   0. 
 H                     0.        2.48697   0. 
 H                     2.15378   1.24349   0. 
 H                     2.15378  -1.24349   0. 
 H                    0.        -2.48697   0. 
 H                    -2.15378  -1.24349   0. 
 
 NAtoms=     12 NQM=       12 NQMF=       0 NMMI=      0 NMMIF=      0
                NMic=       0 NMicF=      0.
                    Isotopes and Nuclear Properties:
 (Nuclear quadrupole moments (NQMom) in fm**2, nuclear magnetic moments (NMagM)
  in nuclear magnetons)

  Atom         1           2           3           4           5           6           7           8           9          10
 IAtWgt=          12          12          12          12          12          12           1           1           1           1
 AtmWgt=  12.0000000  12.0000000  12.0000000  12.0000000  12.0000000  12.0000000   1.0078250   1.0078250   1.0078250   1.0078250
 NucSpn=           0           0           0           0           0           0           1           1           1           1
 AtZEff=   0.0000000   0.0000000   0.0000000   0.0000000   0.0000000   0.0000000   0.0000000   0.0000000   0.0000000   0.0000000
 NQMom=    0.0000000   0.0000000   0.0000000   0.0000000   0.0000000   0.0000000   0.0000000   0.0000000   0.0000000   0.0000000
 NMagM=    0.0000000   0.0000000   0.0000000   0.0000000   0.0000000   0.0000000   2.7928460   2.7928460   2.7928460   2.7928460
 AtZNuc=   6.0000000   6.0000000   6.0000000   6.0000000   6.0000000   6.0000000   1.0000000   1.0000000   1.0000000   1.0000000

  Atom        11          12
 IAtWgt=           1           1
 AtmWgt=   1.0078250   1.0078250
 NucSpn=           1           1
 AtZEff=   0.0000000   0.0000000
 NQMom=    0.0000000   0.0000000
 NMagM=    2.7928460   2.7928460
 AtZNuc=   1.0000000   1.0000000
 Leave Link  101 at Sat Feb 15 15:07:04 2025, MaxMem=    33554432 cpu:         0.0
 (Enter D:\G09W\l202.exe)
                          Input orientation:                          
 ---------------------------------------------------------------------
 Center     Atomic      Atomic             Coordinates (Angstroms)
 Number     Number       Type             X           Y           Z
 ---------------------------------------------------------------------
      1          6           0       -1.212627    0.700110    0.000000
      2          6           0       -0.000001    1.400215    0.000000
      3          6           0        1.212626    0.700109    0.000000
      4          6           0        1.212627   -0.700110    0.000000
      5          6           0        0.000001   -1.400215    0.000000
      6          6           0       -1.212626   -0.700109    0.000000
      7          1           0       -2.153779    1.243486    0.000000
      8          1           0        0.000000    2.486966    0.000000
      9          1           0        2.153778    1.243486    0.000000
     10          1           0        2.153779   -1.243486    0.000000
     11          1           0        0.000000   -2.486966    0.000000
     12          1           0       -2.153778   -1.243486    0.000000
 ---------------------------------------------------------------------
                    Distance matrix (angstroms):
                    1          2          3          4          5
     1  C    0.000000
     2  C    1.400218   0.000000
     3  C    2.425252   1.400219   0.000000
     4  C    2.800441   2.425248   1.400218   0.000000
     5  C    2.425248   2.800431   2.425247   1.400218   0.000000
     6  C    1.400218   2.425247   2.800438   2.425252   1.400219
     7  H    1.086750   2.159473   3.409976   3.887191   3.409974
     8  H    2.159472   1.086750   2.159472   3.409973   3.887181
     9  H    3.409976   2.159473   1.086750   2.159474   3.409972
    10  H    3.887191   3.409974   2.159475   1.086750   2.159473
    11  H    3.409973   3.887181   3.409971   2.159472   1.086750
    12  H    2.159474   3.409972   3.887188   3.409976   2.159473
                    6          7          8          9         10
     6  C    0.000000
     7  H    2.159475   0.000000
     8  H    3.409971   2.486967   0.000000
     9  H    3.887188   4.307557   2.486966   0.000000
    10  H    3.409976   4.973941   4.307556   2.486972   0.000000
    11  H    2.159472   4.307556   4.973932   4.307555   2.486967
    12  H    1.086750   2.486972   4.307555   4.973938   4.307557
                   11         12
    11  H    0.000000
    12  H    2.486966   0.000000
 Symmetry turned off by external request.
 Stoichiometry    C6H6
 Framework group  C2H[SGH(C6H6)]
 Deg. of freedom    11
 Full point group                 C2H     NOp   4
 Rotational constants (GHZ):      5.6604790      5.6604527      2.8302329
 Leave Link  202 at Sat Feb 15 15:07:04 2025, MaxMem=    33554432 cpu:         0.0
 (Enter D:\G09W\l301.exe)
 Standard basis: 6-311++G(d,p) (5D, 7F)
 Ernie: Thresh=  0.10000D-02 Tol=  0.10000D-05 Strict=F.
   174 basis functions,   270 primitive gaussians,   180 cartesian basis functions
    21 alpha electrons       21 beta electrons
       nuclear repulsion energy       202.7501216602 Hartrees.
 IExCor=    0 DFT=F Ex=HF Corr=None ExCW=0 ScaHFX=  1.000000
 ScaDFX=  1.000000  1.000000  1.000000  1.000000 ScalE2=  1.000000  1.000000
 IRadAn=      0 IRanWt=     -1 IRanGd=            0 ICorTp=0 IEmpDi=  4
 NAtoms=   12 NActive=   12 NUniq=   12 SFac= 1.00D+00 NAtFMM=   60 NAOKFM=F Big=F
 Integral buffers will be    262144 words long.
 Raffenetti 1 integral format.
 Two-electron integral symmetry is turned off.
 Leave Link  301 at Sat Feb 15 15:07:04 2025, MaxMem=    33554432 cpu:         0.0
 (Enter D:\G09W\l302.exe)
 NPDir=0 NMtPBC=     1 NCelOv=     1 NCel=       1 NClECP=     1 NCelD=      1
         NCelK=      1 NCelE2=     1 NClLst=     1 CellRange=     0.0.
 One-electron integrals computed using PRISM.
 NBasis=   174 RedAO= T EigKep=  1.11D-06  NBF=   174
 NBsUse=   174 1.00D-06 EigRej= -1.00D+00 NBFU=   174
 Leave Link  302 at Sat Feb 15 15:07:05 2025, MaxMem=    33554432 cpu:         0.0
 (Enter D:\G09W\l303.exe)
 DipDrv:  MaxL=1.
 Leave Link  303 at Sat Feb 15 15:07:06 2025, MaxMem=    33554432 cpu:         0.0
 (Enter D:\G09W\l401.exe)
 ExpMin= 3.60D-02 ExpMax= 4.56D+03 ExpMxC= 6.82D+02 IAcc=3 IRadAn=         5 AccDes= 0.00D+00
 Harris functional with IExCor=  205 and IRadAn=       5 diagonalized for initial guess.
 HarFok:  IExCor=  205 AccDes= 0.00D+00 IRadAn=         5 IDoV= 1 UseB2=F ITyADJ=14
 ICtDFT=  3500011 ScaDFX=  1.000000  1.000000  1.000000  1.000000
 FoFCou: FMM=F IPFlag=           0 FMFlag=      100000 FMFlg1=           0
         NFxFlg=           0 DoJE=T BraDBF=F KetDBF=T FulRan=T
         wScrn=  0.000000 ICntrl=     500 IOpCl=  0 I1Cent=   200000004 NGrid=           0
         NMat0=    1 NMatS0=      1 NMatT0=    0 NMatD0=    1 NMtDS0=    0 NMtDT0=    0
 Symmetry not used in FoFCou.
 Harris En= -231.139162902740    
 JPrj=0 DoOrth=F DoCkMO=F.
 Leave Link  401 at Sat Feb 15 15:07:08 2025, MaxMem=    33554432 cpu:         2.0
 (Enter D:\G09W\l502.exe)
 Closed shell SCF:
 Using DIIS extrapolation, IDIIS=  1040.
 Two-electron integral symmetry not used.
 IVT=      117721 IEndB=      117721 NGot=    33554432 MDV=    33485932
 LenX=    33485932 LenY=    33453091
 Requested convergence on RMS density matrix=1.00D-08 within 128 cycles.
 Requested convergence on MAX density matrix=1.00D-06.
 Requested convergence on             energy=1.00D-06.
 No special actions if energy rises.
 Fock matrices will be formed incrementally for  20 cycles.

 Cycle   1  Pass 0  IDiag  1:
 FoFJK:  IHMeth= 1 ICntrl=       0 DoSepK=F KAlg= 0 I1Cent=   0 FoldK=F
 IRaf= 990000000 NMat=   1 IRICut=       1 DoRegI=T DoRafI=F ISym2E= 0.
 FoFCou: FMM=F IPFlag=           0 FMFlag=      100000 FMFlg1=           0
         NFxFlg=           0 DoJE=F BraDBF=F KetDBF=F FulRan=T
         wScrn=  0.000000 ICntrl=       0 IOpCl=  0 I1Cent=           0 NGrid=           0
         NMat0=    1 NMatS0=      1 NMatT0=    0 NMatD0=    1 NMtDS0=    0 NMtDT0=    0
 Symmetry not used in FoFCou.
 E= -230.466872587988    
 DIIS: error= 7.20D-02 at cycle   1 NSaved=   1.
 NSaved= 1 IEnMin= 1 EnMin= -230.466872587988     IErMin= 1 ErrMin= 7.20D-02
 ErrMax= 7.20D-02  0.00D+00 EMaxC= 1.00D-01 BMatC= 4.98D-01 BMatP= 4.98D-01
 IDIUse=3 WtCom= 2.80D-01 WtEn= 7.20D-01
 Coeff-Com:  0.100D+01
 Coeff-En:   0.100D+01
 Coeff:      0.100D+01
 Gap=     0.476 Goal=   None    Shift=    0.000
 GapD=    0.476 DampG=2.000 DampE=0.500 DampFc=1.0000 IDamp=-1.
 RMSDP=1.14D-02 MaxDP=3.12D-01              OVMax= 1.55D-01

 Cycle   2  Pass 0  IDiag  1:
 RMSU=  1.02D-02    CP:  1.29D+00
 E= -230.710393933158     Delta-E=       -0.243521345170 Rises=F Damp=F
 DIIS: error= 3.05D-02 at cycle   2 NSaved=   2.
 NSaved= 2 IEnMin= 2 EnMin= -230.710393933158     IErMin= 2 ErrMin= 3.05D-02
 ErrMax= 3.05D-02  0.00D+00 EMaxC= 1.00D-01 BMatC= 4.57D-02 BMatP= 4.98D-01
 IDIUse=3 WtCom= 6.95D-01 WtEn= 3.05D-01
 Coeff-Com:  0.153D+00 0.847D+00
 Coeff-En:   0.000D+00 0.100D+01
 Coeff:      0.106D+00 0.894D+00
 Gap=     0.417 Goal=   None    Shift=    0.000
 RMSDP=3.27D-03 MaxDP=8.45D-02 DE=-2.44D-01 OVMax= 5.62D-02

 Cycle   3  Pass 0  IDiag  1:
 RMSU=  3.15D-03    CP:  1.24D+00  9.75D-01
 E= -230.749802515069     Delta-E=       -0.039408581911 Rises=F Damp=F
 DIIS: error= 7.88D-03 at cycle   3 NSaved=   3.
 NSaved= 3 IEnMin= 3 EnMin= -230.749802515069     IErMin= 3 ErrMin= 7.88D-03
 ErrMax= 7.88D-03  0.00D+00 EMaxC= 1.00D-01 BMatC= 5.48D-03 BMatP= 4.57D-02
 IDIUse=3 WtCom= 9.21D-01 WtEn= 7.88D-02
 Coeff-Com: -0.196D-01 0.230D+00 0.790D+00
 Coeff-En:   0.000D+00 0.000D+00 0.100D+01
 Coeff:     -0.181D-01 0.212D+00 0.806D+00
 Gap=     0.377 Goal=   None    Shift=    0.000
 RMSDP=1.26D-03 MaxDP=3.55D-02 DE=-3.94D-02 OVMax= 1.54D-02

 Cycle   4  Pass 0  IDiag  1:
 RMSU=  3.48D-04    CP:  1.27D+00  1.08D+00  1.00D+00
 E= -230.755091291912     Delta-E=       -0.005288776843 Rises=F Damp=F
 DIIS: error= 1.37D-03 at cycle   4 NSaved=   4.
 NSaved= 4 IEnMin= 4 EnMin= -230.755091291912     IErMin= 4 ErrMin= 1.37D-03
 ErrMax= 1.37D-03  0.00D+00 EMaxC= 1.00D-01 BMatC= 3.39D-05 BMatP= 5.48D-03
 IDIUse=3 WtCom= 9.86D-01 WtEn= 1.37D-02
 Coeff-Com: -0.174D-02-0.156D-01 0.957D-02 0.101D+01
 Coeff-En:   0.000D+00 0.000D+00 0.000D+00 0.100D+01
 Coeff:     -0.172D-02-0.154D-01 0.944D-02 0.101D+01
 Gap=     0.378 Goal=   None    Shift=    0.000
 RMSDP=2.22D-04 MaxDP=6.63D-03 DE=-5.29D-03 OVMax= 2.09D-03

 Cycle   5  Pass 0  IDiag  1:
 RMSU=  4.82D-05    CP:  1.28D+00  1.10D+00  1.04D+00  1.12D+00
 E= -230.755142131450     Delta-E=       -0.000050839538 Rises=F Damp=F
 DIIS: error= 2.42D-04 at cycle   5 NSaved=   5.
 NSaved= 5 IEnMin= 5 EnMin= -230.755142131450     IErMin= 5 ErrMin= 2.42D-04
 ErrMax= 2.42D-04  0.00D+00 EMaxC= 1.00D-01 BMatC= 1.69D-06 BMatP= 3.39D-05
 IDIUse=3 WtCom= 9.98D-01 WtEn= 2.42D-03
 Coeff-Com:  0.105D-02-0.852D-02-0.382D-01-0.171D+00 0.122D+01
 Coeff-En:   0.000D+00 0.000D+00 0.000D+00 0.000D+00 0.100D+01
 Coeff:      0.105D-02-0.850D-02-0.381D-01-0.170D+00 0.122D+01
 Gap=     0.378 Goal=   None    Shift=    0.000
 RMSDP=4.33D-05 MaxDP=1.01D-03 DE=-5.08D-05 OVMax= 6.61D-04

 Cycle   6  Pass 0  IDiag  1:
 RMSU=  1.58D-05    CP:  1.28D+00  1.10D+00  1.04D+00  1.15D+00  1.35D+00
 E= -230.755145668683     Delta-E=       -0.000003537234 Rises=F Damp=F
 DIIS: error= 2.35D-05 at cycle   6 NSaved=   6.
 NSaved= 6 IEnMin= 6 EnMin= -230.755145668683     IErMin= 6 ErrMin= 2.35D-05
 ErrMax= 2.35D-05  0.00D+00 EMaxC= 1.00D-01 BMatC= 1.17D-08 BMatP= 1.69D-06
 IDIUse=1 WtCom= 1.00D+00 WtEn= 0.00D+00
 Coeff-Com: -0.105D-03 0.118D-02 0.529D-02 0.156D-01-0.190D+00 0.117D+01
 Coeff:     -0.105D-03 0.118D-02 0.529D-02 0.156D-01-0.190D+00 0.117D+01
 Gap=     0.378 Goal=   None    Shift=    0.000
 RMSDP=1.43D-05 MaxDP=4.03D-04 DE=-3.54D-06 OVMax= 6.00D-05

 Cycle   7  Pass 0  IDiag  1:
 RMSU=  1.14D-06    CP:  1.28D+00  1.10D+00  1.04D+00  1.14D+00  1.40D+00
                    CP:  1.29D+00
 E= -230.755145695575     Delta-E=       -0.000000026892 Rises=F Damp=F
 DIIS: error= 1.72D-06 at cycle   7 NSaved=   7.
 NSaved= 7 IEnMin= 7 EnMin= -230.755145695575     IErMin= 7 ErrMin= 1.72D-06
 ErrMax= 1.72D-06  0.00D+00 EMaxC= 1.00D-01 BMatC= 2.44D-10 BMatP= 1.17D-08
 IDIUse=1 WtCom= 1.00D+00 WtEn= 0.00D+00
 Coeff-Com:  0.119D-04-0.188D-03-0.928D-03-0.192D-02 0.355D-01-0.316D+00
 Coeff-Com:  0.128D+01
 Coeff:      0.119D-04-0.188D-03-0.928D-03-0.192D-02 0.355D-01-0.316D+00
 Coeff:      0.128D+01
 Gap=     0.378 Goal=   None    Shift=    0.000
 RMSDP=1.63D-06 MaxDP=4.40D-05 DE=-2.69D-08 OVMax= 8.39D-06

 Initial convergence to 1.0D-05 achieved.  Increase integral accuracy.
 Cycle   8  Pass 1  IDiag  1:
 E= -230.755145696184     Delta-E=       -0.000000000609 Rises=F Damp=F
 DIIS: error= 3.53D-07 at cycle   1 NSaved=   1.
 NSaved= 1 IEnMin= 1 EnMin= -230.755145696184     IErMin= 1 ErrMin= 3.53D-07
 ErrMax= 3.53D-07  0.00D+00 EMaxC= 1.00D-01 BMatC= 3.55D-12 BMatP= 3.55D-12
 IDIUse=1 WtCom= 1.00D+00 WtEn= 0.00D+00
 Coeff-Com:  0.100D+01
 Coeff:      0.100D+01
 Gap=     0.378 Goal=   None    Shift=    0.000
 RMSDP=1.63D-06 MaxDP=4.40D-05 DE=-6.09D-10 OVMax= 1.15D-06

 Cycle   9  Pass 1  IDiag  1:
 RMSU=  1.12D-07    CP:  1.00D+00
 E= -230.755145696189     Delta-E=       -0.000000000005 Rises=F Damp=F
 DIIS: error= 1.05D-07 at cycle   2 NSaved=   2.
 NSaved= 2 IEnMin= 2 EnMin= -230.755145696189     IErMin= 2 ErrMin= 1.05D-07
 ErrMax= 1.05D-07  0.00D+00 EMaxC= 1.00D-01 BMatC= 5.56D-13 BMatP= 3.55D-12
 IDIUse=1 WtCom= 1.00D+00 WtEn= 0.00D+00
 Coeff-Com: -0.248D+00 0.125D+01
 Coeff:     -0.248D+00 0.125D+01
 Gap=     0.378 Goal=   None    Shift=    0.000
 RMSDP=1.83D-08 MaxDP=3.70D-07 DE=-4.60D-12 OVMax= 4.17D-07

 Cycle  10  Pass 1  IDiag  1:
 RMSU=  1.49D-08    CP:  1.00D+00  1.08D+00
 E= -230.755145696189     Delta-E=        0.000000000000 Rises=F Damp=F
 DIIS: error= 5.06D-08 at cycle   3 NSaved=   3.
 NSaved= 3 IEnMin= 3 EnMin= -230.755145696189     IErMin= 3 ErrMin= 5.06D-08
 ErrMax= 5.06D-08  0.00D+00 EMaxC= 1.00D-01 BMatC= 7.66D-14 BMatP= 5.56D-13
 IDIUse=1 WtCom= 1.00D+00 WtEn= 0.00D+00
 Coeff-Com: -0.179D+00 0.305D+00 0.874D+00
 Coeff:     -0.179D+00 0.305D+00 0.874D+00
 Gap=     0.378 Goal=   None    Shift=    0.000
 RMSDP=7.72D-09 MaxDP=1.86D-07 DE=-1.71D-13 OVMax= 1.97D-07

 SCF Done:  E(RHF) =  -230.755145696     A.U. after   10 cycles
            NFock= 10  Conv=0.77D-08     -V/T= 2.0018
 KE= 2.303469463027D+02 PE=-9.421961023033D+02 EE= 2.783438886442D+02
 Leave Link  502 at Sat Feb 15 15:07:25 2025, MaxMem=    33554432 cpu:        17.0
 (Enter D:\G09W\l801.exe)
 ExpMin= 3.60D-02 ExpMax= 4.56D+03 ExpMxC= 6.82D+02 IAcc=3 IRadAn=         5 AccDes= 0.00D+00
 HarFok:  IExCor=  205 AccDes= 0.00D+00 IRadAn=         5 IDoV=-2 UseB2=F ITyADJ=14
 ICtDFT= 12500011 ScaDFX=  1.000000  1.000000  1.000000  1.000000
 Largest valence mixing into a core orbital is  1.45D-04
 Largest core mixing into a valence orbital is  3.74D-05
 Range of M.O.s used for correlation:     7   174
 NBasis=   174 NAE=    21 NBE=    21 NFC=     6 NFV=     0
 NROrb=    168 NOA=    15 NOB=    15 NVA=   153 NVB=   153

 **** Warning!!: The largest alpha MO coefficient is  0.22962518D+03

 Leave Link  801 at Sat Feb 15 15:07:26 2025, MaxMem=    33554432 cpu:         1.0
 (Enter D:\G09W\l906.exe)
 Frozen-core derivative calculation, NFC=   6 NFV=   0.
 FulOut=F Deriv=T AODrv=F NAtomX=    12
   MMem=          10  MDisk=          15 MDiskD=          15
  W3Min=      657720 MinDsk=     1009670 NBas6D=         180
 NBas2D=       16542    NTT=       16290    LW2=     2040000
    MDV=    33281479 MDiskM=        2413 NBas2p=       16458
 Disk-based method using ON**2 memory for 15 occupieds at a time.
 Estimated scratch disk usage=   185818788 words.
 IMap=   1   2   3   4   5   6   7   8   9  10  11  12  13  14  15  16  17  18  19  20
 IMap=  21
 Actual    scratch disk usage=   154742436 words.
 JobTyp=1 Pass  1:  I=   7 to  21 NPSUse=  4 ParTrn=T ParDer=T DoDerP=T.
 Spin components of T(2) and E(2):
     alpha-alpha T2 =       0.4253488485D-01 E2=     -0.1077978236D+00
     alpha-beta  T2 =       0.2239417387D+00 E2=     -0.6135161657D+00
     beta-beta   T2 =       0.4253488485D-01 E2=     -0.1077978236D+00
 The integrals were generated   1 times.
 ANorm=    0.1144120408D+01
 E2 =    -0.8291118128D+00 EUMP2 =    -0.23158425750904D+03
 Leave Link  906 at Sat Feb 15 15:08:21 2025, MaxMem=    33554432 cpu:        55.0
 (Enter D:\G09W\l1002.exe)
 Minotr:  Closed shell wavefunction.
          Computing MP2/KS-MP2 derivatives.
          Using Z-Vector for PSCF gradient.
          Skipping F1 and S1 gradient terms here.
          Frozen-core window.
          Direct CPHF calculation.
          Differentiating once with respect to electric field.
                with respect to dipole field.
          Electric field/nuclear overlap derivatives assumed to be zero.
          Requested convergence is 1.0D-10 RMS, and 1.0D-09 maximum.
          NewPWx=F KeepS1=T KeepF1=T KeepIn=T MapXYZ=F SortEE=F KeepMc=T.
          MDV=      33554272 using IRadAn=       0.
          Solving linear equations separately, MaxMat=       0.
          There are     1 degrees of freedom in the 1st order CPHF.  IDoFFX=0 NUNeed=     1.
 FoFJK:  IHMeth= 1 ICntrl=       0 DoSepK=F KAlg= 0 I1Cent=   0 FoldK=F
 IRaf= 990000000 NMat=   1 IRICut=       1 DoRegI=T DoRafI=F ISym2E= 0.
 FoFCou: FMM=F IPFlag=           0 FMFlag=      100000 FMFlg1=           0
         NFxFlg=           0 DoJE=F BraDBF=F KetDBF=F FulRan=T
         wScrn=  0.000000 ICntrl=       0 IOpCl=  0 I1Cent=           0 NGrid=           0
         NMat0=    1 NMatS0=      1 NMatT0=    0 NMatD0=    1 NMtDS0=    0 NMtDT0=    0
 Symmetry not used in FoFCou.
 LinEq1:  Iter=  0 NonCon=     1 RMS=3.42D-03 Max=6.26D-02 NDo=     1
 AX will form     1 AO Fock derivatives at one time.
 LinEq1:  Iter=  1 NonCon=     1 RMS=8.47D-04 Max=1.53D-02 NDo=     1
 LinEq1:  Iter=  2 NonCon=     1 RMS=2.36D-04 Max=5.43D-03 NDo=     1
 LinEq1:  Iter=  3 NonCon=     1 RMS=4.92D-05 Max=8.64D-04 NDo=     1
 LinEq1:  Iter=  4 NonCon=     1 RMS=7.03D-06 Max=1.00D-04 NDo=     1
 LinEq1:  Iter=  5 NonCon=     1 RMS=6.45D-07 Max=8.82D-06 NDo=     1
 LinEq1:  Iter=  6 NonCon=     1 RMS=5.68D-08 Max=1.08D-06 NDo=     1
 LinEq1:  Iter=  7 NonCon=     1 RMS=4.30D-09 Max=4.39D-08 NDo=     1
 LinEq1:  Iter=  8 NonCon=     1 RMS=3.60D-10 Max=5.39D-09 NDo=     1
 LinEq1:  Iter=  9 NonCon=     1 RMS=6.24D-11 Max=1.21D-09 NDo=     1
 LinEq1:  Iter= 10 NonCon=     0 RMS=1.57D-11 Max=1.88D-10 NDo=     1
 Linear equations converged to 1.000D-10 1.000D-09 after    10 iterations.
 End of Minotr F.D. properties file   721 does not exist.
 End of Minotr F.D. properties file   722 does not exist.
 End of Minotr F.D. properties file   788 does not exist.
 Leave Link 1002 at Sat Feb 15 15:08:41 2025, MaxMem=    33554432 cpu:        19.0
 (Enter D:\G09W\l601.exe)
 Copying SCF densities to generalized density rwf, IOpCl= 0 IROHF=0.

 **********************************************************************

            Population analysis using the MP2 density.

 **********************************************************************

 Alpha  occ. eigenvalues --  -11.24126 -11.24070 -11.24070 -11.23950 -11.23950
 Alpha  occ. eigenvalues --  -11.23892  -1.14887  -1.01455  -1.01455  -0.82415
 Alpha  occ. eigenvalues --   -0.82415  -0.70856  -0.64516  -0.61873  -0.58861
 Alpha  occ. eigenvalues --   -0.58861  -0.49979  -0.49600  -0.49600  -0.33619
 Alpha  occ. eigenvalues --   -0.33619
 Alpha virt. eigenvalues --    0.04214   0.04894   0.04894   0.06616   0.06616
 Alpha virt. eigenvalues --    0.08794   0.10807   0.10807   0.12965   0.15272
 Alpha virt. eigenvalues --    0.15272   0.15808   0.16268   0.18071   0.18071
 Alpha virt. eigenvalues --    0.18344   0.18344   0.19278   0.20885   0.21212
 Alpha virt. eigenvalues --    0.21212   0.21573   0.21573   0.21676   0.22819
 Alpha virt. eigenvalues --    0.22819   0.25000   0.25000   0.28900   0.28900
 Alpha virt. eigenvalues --    0.30285   0.33325   0.33325   0.36564   0.40742
 Alpha virt. eigenvalues --    0.40742   0.42779   0.42779   0.43810   0.49647
 Alpha virt. eigenvalues --    0.49647   0.50613   0.50613   0.60473   0.60750
 Alpha virt. eigenvalues --    0.71588   0.72246   0.72246   0.72283   0.74689
 Alpha virt. eigenvalues --    0.74825   0.74825   0.75867   0.75867   0.79627
 Alpha virt. eigenvalues --    0.81923   0.81923   0.88447   0.93829   0.93829
 Alpha virt. eigenvalues --    0.94737   0.94737   0.97535   1.01540   1.01540
 Alpha virt. eigenvalues --    1.01855   1.05934   1.05934   1.09690   1.11823
 Alpha virt. eigenvalues --    1.11823   1.12402   1.17050   1.21548   1.21548
 Alpha virt. eigenvalues --    1.24722   1.32114   1.32114   1.38784   1.38784
 Alpha virt. eigenvalues --    1.52002   1.55829   1.70884   1.77992   1.77992
 Alpha virt. eigenvalues --    1.79078   1.82184   1.84034   1.84034   1.90219
 Alpha virt. eigenvalues --    1.90219   1.92798   1.92798   1.98884   2.05205
 Alpha virt. eigenvalues --    2.05205   2.09796   2.09796   2.12283   2.23016
 Alpha virt. eigenvalues --    2.23016   2.23712   2.24381   2.24381   2.29081
 Alpha virt. eigenvalues --    2.33972   2.33972   2.37216   2.37216   2.62892
 Alpha virt. eigenvalues --    2.65206   2.73187   2.73188   2.73913   2.80891
 Alpha virt. eigenvalues --    2.80891   2.94783   2.94783   2.98610   2.98840
 Alpha virt. eigenvalues --    3.02126   3.02126   3.04611   3.04611   3.05492
 Alpha virt. eigenvalues --    3.09156   3.18907   3.18907   3.24847   3.29032
 Alpha virt. eigenvalues --    3.29032   3.31168   3.31168   3.47500   3.53334
 Alpha virt. eigenvalues --    3.76181   3.76181   3.89384   3.89384   3.90867
 Alpha virt. eigenvalues --    4.04988   4.40027   4.40027   4.48734   4.56965
 Alpha virt. eigenvalues --    4.56966   5.26664  24.74542  25.12110  25.12110
 Alpha virt. eigenvalues --   25.23588  25.23588  25.34408
          Condensed to atoms (all electrons):
               1          2          3          4          5          6
     1  C    8.253160  -2.279408   1.950778  -1.695170   1.950777  -2.279413
     2  C   -2.279408   8.253138  -2.279403   1.950777  -1.695165   1.950777
     3  C    1.950778  -2.279403   8.253151  -2.279413   1.950777  -1.695167
     4  C   -1.695170   1.950777  -2.279413   8.253160  -2.279408   1.950778
     5  C    1.950777  -1.695165   1.950777  -2.279408   8.253138  -2.279403
     6  C   -2.279413   1.950777  -1.695167   1.950778  -2.279403   8.253151
     7  H    0.491134  -0.141544   0.040305  -0.010022   0.040305  -0.141544
     8  H   -0.141546   0.491135  -0.141545   0.040306  -0.010022   0.040306
     9  H    0.040306  -0.141544   0.491134  -0.141545   0.040305  -0.010022
    10  H   -0.010022   0.040305  -0.141544   0.491134  -0.141544   0.040305
    11  H    0.040306  -0.010022   0.040306  -0.141546   0.491135  -0.141545
    12  H   -0.141545   0.040305  -0.010022   0.040306  -0.141544   0.491134
               7          8          9         10         11         12
     1  C    0.491134  -0.141546   0.040306  -0.010022   0.040306  -0.141545
     2  C   -0.141544   0.491135  -0.141544   0.040305  -0.010022   0.040305
     3  C    0.040305  -0.141545   0.491134  -0.141544   0.040306  -0.010022
     4  C   -0.010022   0.040306  -0.141545   0.491134  -0.141546   0.040306
     5  C    0.040305  -0.010022   0.040305  -0.141544   0.491135  -0.141544
     6  C   -0.141544   0.040306  -0.010022   0.040305  -0.141545   0.491134
     7  H    0.562574  -0.010271  -0.000471   0.000921  -0.000471  -0.010271
     8  H   -0.010271   0.562576  -0.010271  -0.000471   0.000921  -0.000471
     9  H   -0.000471  -0.010271   0.562574  -0.010271  -0.000471   0.000921
    10  H    0.000921  -0.000471  -0.010271   0.562574  -0.010271  -0.000471
    11  H   -0.000471   0.000921  -0.000471  -0.010271   0.562576  -0.010271
    12  H   -0.010271  -0.000471   0.000921  -0.000471  -0.010271   0.562574
 Mulliken charges:
               1
     1  C   -0.179358
     2  C   -0.179352
     3  C   -0.179357
     4  C   -0.179358
     5  C   -0.179352
     6  C   -0.179357
     7  H    0.179356
     8  H    0.179355
     9  H    0.179356
    10  H    0.179356
    11  H    0.179355
    12  H    0.179356
 Sum of Mulliken charges =   0.00000
 Mulliken charges with hydrogens summed into heavy atoms:
               1
     1  C   -0.000002
     2  C    0.000003
     3  C   -0.000001
     4  C   -0.000002
     5  C    0.000003
     6  C   -0.000001
 Electronic spatial extent (au):  <R**2>=            463.3772
 Charge=              0.0000 electrons
 Dipole moment (field-independent basis, Debye):
    X=              0.0000    Y=              0.0000    Z=              0.0000  Tot=              0.0000
 Quadrupole moment (field-independent basis, Debye-Ang):
   XX=            -32.5352   YY=            -32.5353   ZZ=            -40.9207
   XY=              0.0000   XZ=              0.0000   YZ=              0.0000
 Traceless Quadrupole moment (field-independent basis, Debye-Ang):
   XX=              2.7952   YY=              2.7951   ZZ=             -5.5903
   XY=              0.0000   XZ=              0.0000   YZ=              0.0000
 Octapole moment (field-independent basis, Debye-Ang**2):
  XXX=              0.0000  YYY=              0.0000  ZZZ=              0.0000  XYY=              0.0000
  XXY=              0.0000  XXZ=              0.0000  XZZ=              0.0000  YZZ=              0.0000
  YYZ=              0.0000  XYZ=              0.0000
 Hexadecapole moment (field-independent basis, Debye-Ang**3):
 XXXX=           -281.4392 YYYY=           -281.4387 ZZZZ=            -51.6257 XXXY=              0.0000
 XXXZ=              0.0000 YYYX=              0.0001 YYYZ=              0.0000 ZZZX=              0.0000
 ZZZY=              0.0000 XXYY=            -93.8129 XXZZ=            -66.7477 YYZZ=            -66.7476
 XXYZ=              0.0000 YYXZ=              0.0000 ZZXY=              0.0000
 N-N= 2.027501216602D+02 E-N=-9.430671595184D+02  KE= 2.313755589870D+02
 No NMR shielding tensors so no spin-rotation constants.
 Leave Link  601 at Sat Feb 15 15:08:42 2025, MaxMem=    33554432 cpu:         0.0
 (Enter D:\G09W\l9999.exe)
 1|1|UNPC-MATHEUSM·XIMO|SP|RMP2-FC|6-311++G(d,p)|C6H6|MATHEUS M·XIMO|15
 -Feb-2025|0||#P MP2/6-311++G** nosymm Density=MP2||14-H||0,1|C,0,-1.21
 26266,0.70010962,0.|C,0,-0.0000005,1.40021543,0.|C,0,1.2126257,0.70010
 858,0.|C,0,1.2126266,-0.70010962,0.|C,0,0.0000005,-1.40021543,0.|C,0,-
 1.2126257,-0.70010858,0.|H,0,-2.15377895,1.24348623,0.|H,0,0.00000031,
 2.48696587,0.|H,0,2.15377791,1.24348561,0.|H,0,2.15377895,-1.24348623,
 0.|H,0,-0.00000031,-2.48696587,0.|H,0,-2.15377791,-1.24348561,0.||Vers
 ion=IA32W-G09RevD.01|HF=-230.7551457|MP2=-231.5842575|RMSD=7.716e-009|
 Dipole=0.,0.,0.|Quadrupole=2.0781325,2.0780927,-4.1562252,-0.0000058,0
 .,0.|PG=C02H [SGH(C6H6)]||@


 The cat could very well be man's best friend
 but would never stoop to admitting it.
                               -- Doug Larson
 Job cpu time:       0 days  0 hours  1 minutes 39.0 seconds.
 File lengths (MBytes):  RWF=   1202 Int=      0 D2E=      0 Chk=      3 Scr=      1
 Normal termination of Gaussian 09 at Sat Feb 15 15:08:43 2025.
