14-H                                                                    
SP        RMP2-FC                                                     6-311++G(d,p)       
Number of atoms                            I               12
Info1-9                                    I   N=           9
          21          20           0           0           0         110
           1           2           1
Charge                                     I                0
Multiplicity                               I                1
Number of electrons                        I               42
Number of alpha electrons                  I               21
Number of beta electrons                   I               21
Number of basis functions                  I              174
Number of independent functions            I              174
Number of point charges in /Mol/           I                0
Number of translation vectors              I                0
Atomic numbers                             I   N=          12
           6           6           6           6           6           6
           1           1           1           1           1           1
Nuclear charges                            R   N=          12
  6.00000000E+00  6.00000000E+00  6.00000000E+00  6.00000000E+00  6.00000000E+00
  6.00000000E+00  1.00000000E+00  1.00000000E+00  1.00000000E+00  1.00000000E+00
  1.00000000E+00  1.00000000E+00
Current cartesian coordinates              R   N=          36
 -2.29153218E+00  1.32301544E+00  0.00000000E+00 -9.44863066E-07  2.64602369E+00
  0.00000000E+00  2.29153047E+00  1.32301348E+00  0.00000000E+00  2.29153218E+00
 -1.32301544E+00  0.00000000E+00  9.44863066E-07 -2.64602369E+00  0.00000000E+00
 -2.29153047E+00 -1.32301348E+00  0.00000000E+00 -4.07005237E+00  2.34984842E+00
  0.00000000E+00  5.85815101E-07  4.69968440E+00  0.00000000E+00  4.07005040E+00
  2.34984725E+00  0.00000000E+00  4.07005237E+00 -2.34984842E+00  0.00000000E+00
 -5.85815101E-07 -4.69968440E+00  0.00000000E+00 -4.07005040E+00 -2.34984725E+00
  0.00000000E+00
Force Field                                I                0
Int Atom Types                             I   N=          12
           0           0           0           0           0           0
           0           0           0           0           0           0
MM charges                                 R   N=          12
  0.00000000E+00  0.00000000E+00  0.00000000E+00  0.00000000E+00  0.00000000E+00
  0.00000000E+00  0.00000000E+00  0.00000000E+00  0.00000000E+00  0.00000000E+00
  0.00000000E+00  0.00000000E+00
Integer atomic weights                     I   N=          12
          12          12          12          12          12          12
           1           1           1           1           1           1
Real atomic weights                        R   N=          12
  1.20000000E+01  1.20000000E+01  1.20000000E+01  1.20000000E+01  1.20000000E+01
  1.20000000E+01  1.00782504E+00  1.00782504E+00  1.00782504E+00  1.00782504E+00
  1.00782504E+00  1.00782504E+00
Atom fragment info                         I   N=          12
           0           0           0           0           0           0
           0           0           0           0           0           0
Atom residue num                           I   N=          12
           0           0           0           0           0           0
           0           0           0           0           0           0
Nuclear spins                              I   N=          12
           0           0           0           0           0           0
           1           1           1           1           1           1
Nuclear ZEff                               R   N=          12
 -3.60000000E+00 -3.60000000E+00 -3.60000000E+00 -3.60000000E+00 -3.60000000E+00
 -3.60000000E+00 -1.00000000E+00 -1.00000000E+00 -1.00000000E+00 -1.00000000E+00
 -1.00000000E+00 -1.00000000E+00
Nuclear ZNuc                               R   N=          12
  6.00000000E+00  6.00000000E+00  6.00000000E+00  6.00000000E+00  6.00000000E+00
  6.00000000E+00  1.00000000E+00  1.00000000E+00  1.00000000E+00  1.00000000E+00
  1.00000000E+00  1.00000000E+00
Nuclear QMom                               R   N=          12
  0.00000000E+00  0.00000000E+00  0.00000000E+00  0.00000000E+00  0.00000000E+00
  0.00000000E+00  0.00000000E+00  0.00000000E+00  0.00000000E+00  0.00000000E+00
  0.00000000E+00  0.00000000E+00
Nuclear GFac                               R   N=          12
  0.00000000E+00  0.00000000E+00  0.00000000E+00  0.00000000E+00  0.00000000E+00
  0.00000000E+00  2.79284600E+00  2.79284600E+00  2.79284600E+00  2.79284600E+00
  2.79284600E+00  2.79284600E+00
MicOpt                                     I   N=          12
          -1          -1          -1          -1          -1          -1
          -1          -1          -1          -1          -1          -1
Number of contracted shells                I               66
Number of primitive shells                 I              120
Pure/Cartesian d shells                    I                0
Pure/Cartesian f shells                    I                0
Highest angular momentum                   I                2
Largest degree of contraction              I                6
Shell types                                I   N=          66
           0          -1          -1          -1          -1          -2
           0          -1          -1          -1          -1          -2
           0          -1          -1          -1          -1          -2
           0          -1          -1          -1          -1          -2
           0          -1          -1          -1          -1          -2
           0          -1          -1          -1          -1          -2
           0           0           0           0           1           0
           0           0           0           1           0           0
           0           0           1           0           0           0
           0           1           0           0           0           0
           1           0           0           0           0           1
Number of primitives per shell             I   N=          66
           6           3           1           1           1           1
           6           3           1           1           1           1
           6           3           1           1           1           1
           6           3           1           1           1           1
           6           3           1           1           1           1
           6           3           1           1           1           1
           3           1           1           1           1           3
           1           1           1           1           3           1
           1           1           1           3           1           1
           1           1           3           1           1           1
           1           3           1           1           1           1
Shell to atom map                          I   N=          66
           1           1           1           1           1           1
           2           2           2           2           2           2
           3           3           3           3           3           3
           4           4           4           4           4           4
           5           5           5           5           5           5
           6           6           6           6           6           6
           7           7           7           7           7           8
           8           8           8           8           9           9
           9           9           9          10          10          10
          10          10          11          11          11          11
          11          12          12          12          12          12
Primitive exponents                        R   N=         120
  4.56324000E+03  6.82024000E+02  1.54973000E+02  4.44553000E+01  1.30290000E+01
  1.82773000E+00  2.09642000E+01  4.80331000E+00  1.45933000E+00  4.83456000E-01
  1.45585000E-01  4.38000000E-02  6.26000000E-01  4.56324000E+03  6.82024000E+02
  1.54973000E+02  4.44553000E+01  1.30290000E+01  1.82773000E+00  2.09642000E+01
  4.80331000E+00  1.45933000E+00  4.83456000E-01  1.45585000E-01  4.38000000E-02
  6.26000000E-01  4.56324000E+03  6.82024000E+02  1.54973000E+02  4.44553000E+01
  1.30290000E+01  1.82773000E+00  2.09642000E+01  4.80331000E+00  1.45933000E+00
  4.83456000E-01  1.45585000E-01  4.38000000E-02  6.26000000E-01  4.56324000E+03
  6.82024000E+02  1.54973000E+02  4.44553000E+01  1.30290000E+01  1.82773000E+00
  2.09642000E+01  4.80331000E+00  1.45933000E+00  4.83456000E-01  1.45585000E-01
  4.38000000E-02  6.26000000E-01  4.56324000E+03  6.82024000E+02  1.54973000E+02
  4.44553000E+01  1.30290000E+01  1.82773000E+00  2.09642000E+01  4.80331000E+00
  1.45933000E+00  4.83456000E-01  1.45585000E-01  4.38000000E-02  6.26000000E-01
  4.56324000E+03  6.82024000E+02  1.54973000E+02  4.44553000E+01  1.30290000E+01
  1.82773000E+00  2.09642000E+01  4.80331000E+00  1.45933000E+00  4.83456000E-01
  1.45585000E-01  4.38000000E-02  6.26000000E-01  3.38650000E+01  5.09479000E+00
  1.15879000E+00  3.25840000E-01  1.02741000E-01  3.60000000E-02  7.50000000E-01
  3.38650000E+01  5.09479000E+00  1.15879000E+00  3.25840000E-01  1.02741000E-01
  3.60000000E-02  7.50000000E-01  3.38650000E+01  5.09479000E+00  1.15879000E+00
  3.25840000E-01  1.02741000E-01  3.60000000E-02  7.50000000E-01  3.38650000E+01
  5.09479000E+00  1.15879000E+00  3.25840000E-01  1.02741000E-01  3.60000000E-02
  7.50000000E-01  3.38650000E+01  5.09479000E+00  1.15879000E+00  3.25840000E-01
  1.02741000E-01  3.60000000E-02  7.50000000E-01  3.38650000E+01  5.09479000E+00
  1.15879000E+00  3.25840000E-01  1.02741000E-01  3.60000000E-02  7.50000000E-01
Contraction coefficients                   R   N=         120
  1.96665025E-03  1.52306019E-02  7.61269097E-02  2.60801033E-01  6.16462078E-01
  2.21006028E-01  1.14660081E-01  9.19999648E-01 -3.03068213E-03  1.00000000E+00
  1.00000000E+00  1.00000000E+00  1.00000000E+00  1.96665025E-03  1.52306019E-02
  7.61269097E-02  2.60801033E-01  6.16462078E-01  2.21006028E-01  1.14660081E-01
  9.19999648E-01 -3.03068213E-03  1.00000000E+00  1.00000000E+00  1.00000000E+00
  1.00000000E+00  1.96665025E-03  1.52306019E-02  7.61269097E-02  2.60801033E-01
  6.16462078E-01  2.21006028E-01  1.14660081E-01  9.19999648E-01 -3.03068213E-03
  1.00000000E+00  1.00000000E+00  1.00000000E+00  1.00000000E+00  1.96665025E-03
  1.52306019E-02  7.61269097E-02  2.60801033E-01  6.16462078E-01  2.21006028E-01
  1.14660081E-01  9.19999648E-01 -3.03068213E-03  1.00000000E+00  1.00000000E+00
  1.00000000E+00  1.00000000E+00  1.96665025E-03  1.52306019E-02  7.61269097E-02
  2.60801033E-01  6.16462078E-01  2.21006028E-01  1.14660081E-01  9.19999648E-01
 -3.03068213E-03  1.00000000E+00  1.00000000E+00  1.00000000E+00  1.00000000E+00
  1.96665025E-03  1.52306019E-02  7.61269097E-02  2.60801033E-01  6.16462078E-01
  2.21006028E-01  1.14660081E-01  9.19999648E-01 -3.03068213E-03  1.00000000E+00
  1.00000000E+00  1.00000000E+00  1.00000000E+00  2.54938145E-02  1.90373109E-01
  8.52161486E-01  1.00000000E+00  1.00000000E+00  1.00000000E+00  1.00000000E+00
  2.54938145E-02  1.90373109E-01  8.52161486E-01  1.00000000E+00  1.00000000E+00
  1.00000000E+00  1.00000000E+00  2.54938145E-02  1.90373109E-01  8.52161486E-01
  1.00000000E+00  1.00000000E+00  1.00000000E+00  1.00000000E+00  2.54938145E-02
  1.90373109E-01  8.52161486E-01  1.00000000E+00  1.00000000E+00  1.00000000E+00
  1.00000000E+00  2.54938145E-02  1.90373109E-01  8.52161486E-01  1.00000000E+00
  1.00000000E+00  1.00000000E+00  1.00000000E+00  2.54938145E-02  1.90373109E-01
  8.52161486E-01  1.00000000E+00  1.00000000E+00  1.00000000E+00  1.00000000E+00
P(S=P) Contraction coefficients            R   N=         120
  0.00000000E+00  0.00000000E+00  0.00000000E+00  0.00000000E+00  0.00000000E+00
  0.00000000E+00  4.02486927E-02  2.37593957E-01  8.15853851E-01  1.00000000E+00
  1.00000000E+00  1.00000000E+00  0.00000000E+00  0.00000000E+00  0.00000000E+00
  0.00000000E+00  0.00000000E+00  0.00000000E+00  0.00000000E+00  4.02486927E-02
  2.37593957E-01  8.15853851E-01  1.00000000E+00  1.00000000E+00  1.00000000E+00
  0.00000000E+00  0.00000000E+00  0.00000000E+00  0.00000000E+00  0.00000000E+00
  0.00000000E+00  0.00000000E+00  4.02486927E-02  2.37593957E-01  8.15853851E-01
  1.00000000E+00  1.00000000E+00  1.00000000E+00  0.00000000E+00  0.00000000E+00
  0.00000000E+00  0.00000000E+00  0.00000000E+00  0.00000000E+00  0.00000000E+00
  4.02486927E-02  2.37593957E-01  8.15853851E-01  1.00000000E+00  1.00000000E+00
  1.00000000E+00  0.00000000E+00  0.00000000E+00  0.00000000E+00  0.00000000E+00
  0.00000000E+00  0.00000000E+00  0.00000000E+00  4.02486927E-02  2.37593957E-01
  8.15853851E-01  1.00000000E+00  1.00000000E+00  1.00000000E+00  0.00000000E+00
  0.00000000E+00  0.00000000E+00  0.00000000E+00  0.00000000E+00  0.00000000E+00
  0.00000000E+00  4.02486927E-02  2.37593957E-01  8.15853851E-01  1.00000000E+00
  1.00000000E+00  1.00000000E+00  0.00000000E+00  0.00000000E+00  0.00000000E+00
  0.00000000E+00  0.00000000E+00  0.00000000E+00  0.00000000E+00  0.00000000E+00
  0.00000000E+00  0.00000000E+00  0.00000000E+00  0.00000000E+00  0.00000000E+00
  0.00000000E+00  0.00000000E+00  0.00000000E+00  0.00000000E+00  0.00000000E+00
  0.00000000E+00  0.00000000E+00  0.00000000E+00  0.00000000E+00  0.00000000E+00
  0.00000000E+00  0.00000000E+00  0.00000000E+00  0.00000000E+00  0.00000000E+00
  0.00000000E+00  0.00000000E+00  0.00000000E+00  0.00000000E+00  0.00000000E+00
  0.00000000E+00  0.00000000E+00  0.00000000E+00  0.00000000E+00  0.00000000E+00
  0.00000000E+00  0.00000000E+00  0.00000000E+00  0.00000000E+00  0.00000000E+00
Coordinates of each shell                  R   N=         198
 -2.29153218E+00  1.32301544E+00  0.00000000E+00 -2.29153218E+00  1.32301544E+00
  0.00000000E+00 -2.29153218E+00  1.32301544E+00  0.00000000E+00 -2.29153218E+00
  1.32301544E+00  0.00000000E+00 -2.29153218E+00  1.32301544E+00  0.00000000E+00
 -2.29153218E+00  1.32301544E+00  0.00000000E+00 -9.44863066E-07  2.64602369E+00
  0.00000000E+00 -9.44863066E-07  2.64602369E+00  0.00000000E+00 -9.44863066E-07
  2.64602369E+00  0.00000000E+00 -9.44863066E-07  2.64602369E+00  0.00000000E+00
 -9.44863066E-07  2.64602369E+00  0.00000000E+00 -9.44863066E-07  2.64602369E+00
  0.00000000E+00  2.29153047E+00  1.32301348E+00  0.00000000E+00  2.29153047E+00
  1.32301348E+00  0.00000000E+00  2.29153047E+00  1.32301348E+00  0.00000000E+00
  2.29153047E+00  1.32301348E+00  0.00000000E+00  2.29153047E+00  1.32301348E+00
  0.00000000E+00  2.29153047E+00  1.32301348E+00  0.00000000E+00  2.29153218E+00
 -1.32301544E+00  0.00000000E+00  2.29153218E+00 -1.32301544E+00  0.00000000E+00
  2.29153218E+00 -1.32301544E+00  0.00000000E+00  2.29153218E+00 -1.32301544E+00
  0.00000000E+00  2.29153218E+00 -1.32301544E+00  0.00000000E+00  2.29153218E+00
 -1.32301544E+00  0.00000000E+00  9.44863066E-07 -2.64602369E+00  0.00000000E+00
  9.44863066E-07 -2.64602369E+00  0.00000000E+00  9.44863066E-07 -2.64602369E+00
  0.00000000E+00  9.44863066E-07 -2.64602369E+00  0.00000000E+00  9.44863066E-07
 -2.64602369E+00  0.00000000E+00  9.44863066E-07 -2.64602369E+00  0.00000000E+00
 -2.29153047E+00 -1.32301348E+00  0.00000000E+00 -2.29153047E+00 -1.32301348E+00
  0.00000000E+00 -2.29153047E+00 -1.32301348E+00  0.00000000E+00 -2.29153047E+00
 -1.32301348E+00  0.00000000E+00 -2.29153047E+00 -1.32301348E+00  0.00000000E+00
 -2.29153047E+00 -1.32301348E+00  0.00000000E+00 -4.07005237E+00  2.34984842E+00
  0.00000000E+00 -4.07005237E+00  2.34984842E+00  0.00000000E+00 -4.07005237E+00
  2.34984842E+00  0.00000000E+00 -4.07005237E+00  2.34984842E+00  0.00000000E+00
 -4.07005237E+00  2.34984842E+00  0.00000000E+00  5.85815101E-07  4.69968440E+00
  0.00000000E+00  5.85815101E-07  4.69968440E+00  0.00000000E+00  5.85815101E-07
  4.69968440E+00  0.00000000E+00  5.85815101E-07  4.69968440E+00  0.00000000E+00
  5.85815101E-07  4.69968440E+00  0.00000000E+00  4.07005040E+00  2.34984725E+00
  0.00000000E+00  4.07005040E+00  2.34984725E+00  0.00000000E+00  4.07005040E+00
  2.34984725E+00  0.00000000E+00  4.07005040E+00  2.34984725E+00  0.00000000E+00
  4.07005040E+00  2.34984725E+00  0.00000000E+00  4.07005237E+00 -2.34984842E+00
  0.00000000E+00  4.07005237E+00 -2.34984842E+00  0.00000000E+00  4.07005237E+00
 -2.34984842E+00  0.00000000E+00  4.07005237E+00 -2.34984842E+00  0.00000000E+00
  4.07005237E+00 -2.34984842E+00  0.00000000E+00 -5.85815101E-07 -4.69968440E+00
  0.00000000E+00 -5.85815101E-07 -4.69968440E+00  0.00000000E+00 -5.85815101E-07
 -4.69968440E+00  0.00000000E+00 -5.85815101E-07 -4.69968440E+00  0.00000000E+00
 -5.85815101E-07 -4.69968440E+00  0.00000000E+00 -4.07005040E+00 -2.34984725E+00
  0.00000000E+00 -4.07005040E+00 -2.34984725E+00  0.00000000E+00 -4.07005040E+00
 -2.34984725E+00  0.00000000E+00 -4.07005040E+00 -2.34984725E+00  0.00000000E+00
 -4.07005040E+00 -2.34984725E+00  0.00000000E+00
Constraint Structure                       R   N=          36
 -2.29153218E+00  1.32301544E+00  0.00000000E+00 -9.44863066E-07  2.64602369E+00
  0.00000000E+00  2.29153047E+00  1.32301348E+00  0.00000000E+00  2.29153218E+00
 -1.32301544E+00  0.00000000E+00  9.44863066E-07 -2.64602369E+00  0.00000000E+00
 -2.29153047E+00 -1.32301348E+00  0.00000000E+00 -4.07005237E+00  2.34984842E+00
  0.00000000E+00  5.85815101E-07  4.69968440E+00  0.00000000E+00  4.07005040E+00
  2.34984725E+00  0.00000000E+00  4.07005237E+00 -2.34984842E+00  0.00000000E+00
 -5.85815101E-07 -4.69968440E+00  0.00000000E+00 -4.07005040E+00 -2.34984725E+00
  0.00000000E+00
Num ILSW                                   I              100
ILSW                                       I   N=         100
           0           0           0           0           2           0
           0           0           0           0           0          -1
           0           0           0           0           0           0
           0           0           0           0           0           0
           1           1           0           0           0           0
           0           0      100000           0          -1           0
           0           0           0           0           0           0
           0           0           0           1           0           0
           0           0           1           0           0           0
           0           0           4          41           0           0
           0           0           0           0           0           0
           0           0           0          12           0           0
           0           0           0           0           0           0
           0           0           0           0           0           0
           0           0           0           0           0           0
           0           0           0           0           0           0
           0           0           0           0
Num RLSW                                   I               41
RLSW                                       R   N=          41
  1.00000000E+00  1.00000000E+00  1.00000000E+00  1.00000000E+00  1.00000000E+00
  0.00000000E+00  0.00000000E+00  1.00000000E+00  0.00000000E+00  0.00000000E+00
  0.00000000E+00  0.00000000E+00  1.00000000E+00  0.00000000E+00  0.00000000E+00
  0.00000000E+00  0.00000000E+00  1.00000000E+00  0.00000000E+00  0.00000000E+00
  0.00000000E+00  0.00000000E+00  1.00000000E+00  0.00000000E+00  0.00000000E+00
  0.00000000E+00  0.00000000E+00  1.00000000E+00  0.00000000E+00  0.00000000E+00
  0.00000000E+00  0.00000000E+00  1.00000000E+00  0.00000000E+00  0.00000000E+00
  0.00000000E+00  0.00000000E+00  0.00000000E+00  1.00000000E+00  1.00000000E+00
  0.00000000E+00
MxBond                                     I                3
NBond                                      I   N=          12
           3           3           3           3           3           3
           1           1           1           1           1           1
IBond                                      I   N=          36
           2           6           7           1           3           8
           2           4           9           3           5          10
           4           6          11           1           5          12
           1           0           0           2           0           0
           3           0           0           4           0           0
           5           0           0           6           0           0
RBond                                      R   N=          36
  1.50000000E+00  1.50000000E+00  1.00000000E+00  1.50000000E+00  1.50000000E+00
  1.00000000E+00  1.50000000E+00  1.50000000E+00  1.00000000E+00  1.50000000E+00
  1.50000000E+00  1.00000000E+00  1.50000000E+00  1.50000000E+00  1.00000000E+00
  1.50000000E+00  1.50000000E+00  1.00000000E+00  1.00000000E+00  0.00000000E+00
  0.00000000E+00  1.00000000E+00  0.00000000E+00  0.00000000E+00  1.00000000E+00
  0.00000000E+00  0.00000000E+00  1.00000000E+00  0.00000000E+00  0.00000000E+00
  1.00000000E+00  0.00000000E+00  0.00000000E+00  1.00000000E+00  0.00000000E+00
  0.00000000E+00
Virial Ratio                               R      2.001772106815498E+00
SCF Energy                                 R     -2.307551456961892E+02
MP2 Energy                                 R     -2.315842575090385E+02
Total Energy                               R     -2.315842575090385E+02
Post-SCF wavefunction norm                 R      1.144120408160144E+00
RMS Density                                R      7.715780154894730E-09
External E-field                           R   N=          35
  0.00000000E+00  0.00000000E+00  0.00000000E+00  0.00000000E+00  0.00000000E+00
  0.00000000E+00  0.00000000E+00  0.00000000E+00  0.00000000E+00  0.00000000E+00
  0.00000000E+00  0.00000000E+00  0.00000000E+00  0.00000000E+00  0.00000000E+00
  0.00000000E+00  0.00000000E+00  0.00000000E+00  0.00000000E+00  0.00000000E+00
  0.00000000E+00  0.00000000E+00  0.00000000E+00  0.00000000E+00  0.00000000E+00
  0.00000000E+00  0.00000000E+00  0.00000000E+00  0.00000000E+00  0.00000000E+00
  0.00000000E+00  0.00000000E+00  0.00000000E+00  0.00000000E+00  0.00000000E+00
IOpCl                                      I                0
IROHF                                      I                0
Alpha Orbital Energies                     R   N=         174
 -1.12412575E+01 -1.12407030E+01 -1.12407029E+01 -1.12395047E+01 -1.12395046E+01
 -1.12389171E+01 -1.14887001E+00 -1.01454829E+00 -1.01454766E+00 -8.24147249E-01
 -8.24146801E-01 -7.08556488E-01 -6.45157716E-01 -6.18728923E-01 -5.88612140E-01
 -5.88610887E-01 -4.99792002E-01 -4.96001442E-01 -4.96000380E-01 -3.36189188E-01
 -3.36188763E-01  4.21413727E-02  4.89384965E-02  4.89385315E-02  6.61638485E-02
  6.61638895E-02  8.79412876E-02  1.08065575E-01  1.08065865E-01  1.29648227E-01
  1.52715636E-01  1.52715704E-01  1.58084095E-01  1.62679393E-01  1.80708791E-01
  1.80708899E-01  1.83438223E-01  1.83438231E-01  1.92777429E-01  2.08853165E-01
  2.12121766E-01  2.12121842E-01  2.15727691E-01  2.15727842E-01  2.16755517E-01
  2.28189729E-01  2.28189859E-01  2.49999378E-01  2.49999388E-01  2.89003476E-01
  2.89003568E-01  3.02849057E-01  3.33248655E-01  3.33254811E-01  3.65642873E-01
  4.07418521E-01  4.07418761E-01  4.27790031E-01  4.27790163E-01  4.38096293E-01
  4.96467740E-01  4.96467959E-01  5.06126511E-01  5.06126956E-01  6.04726544E-01
  6.07496747E-01  7.15881797E-01  7.22461432E-01  7.22461499E-01  7.22825488E-01
  7.46888879E-01  7.48245275E-01  7.48245581E-01  7.58669356E-01  7.58669459E-01
  7.96265925E-01  8.19228902E-01  8.19229004E-01  8.84465143E-01  9.38289976E-01
  9.38290482E-01  9.47369729E-01  9.47370955E-01  9.75345069E-01  1.01539665E+00
  1.01539674E+00  1.01855115E+00  1.05934059E+00  1.05934068E+00  1.09689932E+00
  1.11823243E+00  1.11823265E+00  1.12402257E+00  1.17049988E+00  1.21547620E+00
  1.21547692E+00  1.24721514E+00  1.32113798E+00  1.32113941E+00  1.38784219E+00
  1.38784307E+00  1.52001986E+00  1.55829351E+00  1.70884295E+00  1.77991790E+00
  1.77992047E+00  1.79077590E+00  1.82183667E+00  1.84034224E+00  1.84034287E+00
  1.90219037E+00  1.90219156E+00  1.92797780E+00  1.92797954E+00  1.98884239E+00
  2.05204969E+00  2.05205044E+00  2.09795711E+00  2.09795869E+00  2.12283100E+00
  2.23015761E+00  2.23015989E+00  2.23712418E+00  2.24380867E+00  2.24381024E+00
  2.29081291E+00  2.33972390E+00  2.33972422E+00  2.37216359E+00  2.37216474E+00
  2.62891796E+00  2.65205715E+00  2.73187478E+00  2.73187539E+00  2.73912545E+00
  2.80890576E+00  2.80890701E+00  2.94782824E+00  2.94783034E+00  2.98609811E+00
  2.98840119E+00  3.02125990E+00  3.02126040E+00  3.04610986E+00  3.04611003E+00
  3.05491710E+00  3.09155905E+00  3.18907213E+00  3.18907273E+00  3.24846583E+00
  3.29031924E+00  3.29031971E+00  3.31167823E+00  3.31167989E+00  3.47499731E+00
  3.53334159E+00  3.76181286E+00  3.76181357E+00  3.89384272E+00  3.89384347E+00
  3.90866670E+00  4.04988319E+00  4.40026507E+00  4.40026621E+00  4.48733849E+00
  4.56965498E+00  4.56965670E+00  5.26663613E+00  2.47454182E+01  2.51210958E+01
  2.51210968E+01  2.52358811E+01  2.52358824E+01  2.53440817E+01
Alpha MO coefficients                      R   N=       30276
  2.29923212E-01  1.90369690E-01  2.59407631E-05 -1.49850369E-05 -9.72793595E-18
  1.99968107E-03  1.58713783E-04 -9.16401796E-05 -9.20201311E-16 -3.78519717E-04
 -1.10907378E-05  6.40515625E-06  3.22722852E-15 -8.99603890E-05  1.62708914E-04
 -9.39369264E-05 -3.35222441E-15 -1.14194882E-04 -2.80044062E-16 -9.16511834E-17
 -3.21140390E-05  5.56186935E-05  2.29902279E-01  1.90352351E-01  7.52634685E-10
 -2.99663180E-05  5.42167387E-17  1.99953547E-03 -3.64336929E-10 -1.83265470E-04
 -1.79598141E-16 -3.78495776E-04  3.08245721E-10  1.27954532E-05 -6.30675389E-16
 -9.02141878E-05 -2.26572367E-09 -1.87772681E-04 -8.40945868E-16 -1.14176889E-04
  1.52464995E-16 -5.24355614E-16  6.42245830E-05  1.55729437E-10  2.29925031E-01
  1.90371197E-01 -2.59404382E-05 -1.49841907E-05 -1.37140701E-16  1.99969292E-03
 -1.58714385E-04 -9.16404707E-05  1.46742727E-16 -3.78520786E-04  1.10908101E-05
  6.40443004E-06 -2.18132384E-16 -8.99314611E-05 -1.62720575E-04 -9.39413580E-05
  2.86663407E-15 -1.14196254E-04  4.78620246E-16 -6.26697000E-17 -3.21142806E-05
 -5.56193095E-05  2.29923212E-01  1.90369690E-01 -2.59407631E-05  1.49850369E-05
  1.76665432E-16  1.99968107E-03 -1.58713783E-04  9.16401796E-05 -2.22909509E-16
 -3.78519728E-04  1.10907471E-05 -6.40516161E-06 -2.54639963E-16 -8.99607932E-05
 -1.62708828E-04  9.39368767E-05 -1.81834891E-15 -1.14194882E-04 -1.41607998E-16
  4.21430902E-17 -3.21140389E-05  5.56186934E-05  2.29902279E-01  1.90352351E-01
 -7.52639744E-10  2.99663180E-05  3.50708815E-16  1.99953547E-03  3.64339018E-10
  1.83265470E-04 -5.70390299E-16 -3.78495765E-04 -3.08287580E-10 -1.27954425E-05
  1.19490080E-15 -9.02137837E-05  2.26564850E-09  1.87772781E-04 -9.44852379E-16
 -1.14176889E-04 -5.98378276E-17  5.82092942E-17  6.42245831E-05  1.55725457E-10
  2.29925031E-01  1.90371197E-01  2.59404382E-05  1.49841907E-05  3.49053134E-16
  1.99969293E-03  1.58714385E-04  9.16404707E-05 -3.79920625E-17 -3.78520797E-04
 -1.10908194E-05 -6.40443536E-06 -2.31678187E-15 -8.99318655E-05  1.62720489E-04
  9.39413085E-05  3.33687418E-15 -1.14196254E-04  8.52772039E-17 -1.16001199E-16
 -3.21142805E-05 -5.56193094E-05  1.75696546E-04 -1.07605268E-05  2.35875372E-04
  8.43691048E-05  2.91643968E-05 -1.68388553E-05 -4.17839255E-16  1.75681482E-04
 -1.07505540E-05  2.35857584E-04  8.43294824E-05 -5.21651209E-11 -3.36775672E-05
  4.55135461E-16  1.75697937E-04 -1.07605339E-05  2.35877398E-04  8.43743849E-05
 -2.91647074E-05 -1.68389622E-05 -2.73265742E-16  1.75696546E-04 -1.07605285E-05
  2.35875367E-04  8.43690825E-05 -2.91643966E-05  1.68388552E-05  1.26166027E-16
  1.75681482E-04 -1.07505523E-05  2.35857589E-04  8.43295048E-05  5.21648330E-11
  3.36775674E-05 -2.32569283E-17  1.75697937E-04 -1.07605356E-05  2.35877393E-04
  8.43743627E-05  2.91647073E-05  1.68389621E-05  2.81831363E-16 -2.76342415E-01
 -2.28839061E-01  4.29716120E-05  8.46159282E-05  9.22672478E-16 -2.23082296E-03
 -5.58390382E-05  1.31471992E-04 -1.47534197E-15  2.83072543E-04 -7.31034253E-05
 -9.06074071E-05  2.18258873E-16  1.23483695E-03 -5.52684014E-04  1.01179554E-03
  9.83699720E-15  1.60694447E-04 -1.42602224E-16  2.56127467E-16  8.51328653E-05
 -3.13949252E-05  1.02829338E-02  8.51529367E-03  1.79684740E-04 -1.90126340E-07
 -5.45445128E-16  8.30122089E-05  1.62948198E-04 -4.24644245E-06  5.61470890E-16
 -1.05258980E-05 -2.18089940E-04 -6.75289047E-07  5.55915628E-16 -4.59818285E-05
  1.13746665E-03 -3.66310887E-05 -1.03795087E-14 -5.97936986E-06 -2.52709606E-16
 -1.89183976E-16  2.59586004E-06 -1.10029965E-04  2.86629041E-01  2.37357413E-01
  3.78847279E-05 -7.61819002E-05 -1.03986976E-15  2.31385902E-03 -6.39802877E-05
 -1.25862581E-04  1.48450336E-15 -2.93625433E-04 -6.76992954E-05  7.99277138E-05
 -2.24718000E-15 -1.28071202E-03 -6.15596993E-04 -9.76144813E-04  1.18865836E-14
 -1.66676654E-04  2.80948545E-16 -1.76163240E-16 -8.12095360E-05 -3.66581139E-05
  2.76342415E-01  2.28839061E-01  4.29716120E-05  8.46159282E-05  1.27270074E-15
  2.23082296E-03 -5.58390382E-05  1.31471992E-04 -1.91449460E-15 -2.83072543E-04
 -7.31034253E-05 -9.06074071E-05  2.50892572E-15 -1.23483695E-03 -5.52684012E-04
  1.01179554E-03 -1.28658649E-14 -1.60694447E-04 -9.17710882E-17 -9.16443636E-17
 -8.51328653E-05  3.13949252E-05 -1.02829338E-02 -8.51529366E-03  1.79684740E-04
 -1.90126342E-07 -5.21286102E-16 -8.30122088E-05  1.62948198E-04 -4.24644244E-06
  9.14801717E-16  1.05258980E-05 -2.18089940E-04 -6.75289061E-07 -1.93527548E-15