 Entering Gaussian System, Link 0=g09
 Initial command:
 /apps/software//g09/l1.exe /scratch/itamar/2487.cluster.abaxnet/Gau-13496.inp -scrdir=/scratch/itamar/2487.cluster.abaxnet/
 Entering Link 1 = /apps/software//g09/l1.exe PID=     13497.
  
 Copyright (c) 1988,1990,1992,1993,1995,1998,2003,2009, Gaussian, Inc.
                  All Rights Reserved.
  
 This is part of the Gaussian(R) 09 program.  It is based on
 the Gaussian(R) 03 system (copyright 2003, Gaussian, Inc.),
 the Gaussian(R) 98 system (copyright 1998, Gaussian, Inc.),
 the Gaussian(R) 94 system (copyright 1995, Gaussian, Inc.),
 the Gaussian 92(TM) system (copyright 1992, Gaussian, Inc.),
 the Gaussian 90(TM) system (copyright 1990, Gaussian, Inc.),
 the Gaussian 88(TM) system (copyright 1988, Gaussian, Inc.),
 the Gaussian 86(TM) system (copyright 1986, Carnegie Mellon
 University), and the Gaussian 82(TM) system (copyright 1983,
 Carnegie Mellon University). Gaussian is a federally registered
 trademark of Gaussian, Inc.
  
 This software contains proprietary and confidential information,
 including trade secrets, belonging to Gaussian, Inc.
  
 This software is provided under written license and may be
 used, copied, transmitted, or stored only in accord with that
 written license.
  
 The following legend is applicable only to US Government
 contracts under FAR:
  
                    RESTRICTED RIGHTS LEGEND
  
 Use, reproduction and disclosure by the US Government is
 subject to restrictions as set forth in subparagraphs (a)
 and (c) of the Commercial Computer Software - Restricted
 Rights clause in FAR 52.227-19.
  
 Gaussian, Inc.
 340 Quinnipiac St., Bldg. 40, Wallingford CT 06492
  
  
 ---------------------------------------------------------------
 Warning -- This program may not be used in any manner that
 competes with the business of Gaussian, Inc. or will provide
 assistance to any competitor of Gaussian, Inc.  The licensee
 of this program is prohibited from giving any competitor of
 Gaussian, Inc. access to this program.  By using this program,
 the user acknowledges that Gaussian, Inc. is engaged in the
 business of creating and licensing software in the field of
 computational chemistry and represents and warrants to the
 licensee that it is not a competitor of Gaussian, Inc. and that
 it will not use this program in any manner prohibited above.
 ---------------------------------------------------------------
  

 Cite this work as:
 Gaussian 09, Revision A.02,
 M. J. Frisch, G. W. Trucks, H. B. Schlegel, G. E. Scuseria, 
 M. A. Robb, J. R. Cheeseman, G. Scalmani, V. Barone, B. Mennucci, 
 G. A. Petersson, H. Nakatsuji, M. Caricato, X. Li, H. P. Hratchian, 
 A. F. Izmaylov, J. Bloino, G. Zheng, J. L. Sonnenberg, M. Hada, 
 M. Ehara, K. Toyota, R. Fukuda, J. Hasegawa, M. Ishida, T. Nakajima, 
 Y. Honda, O. Kitao, H. Nakai, T. Vreven, J. A. Montgomery, Jr., 
 J. E. Peralta, F. Ogliaro, M. Bearpark, J. J. Heyd, E. Brothers, 
 K. N. Kudin, V. N. Staroverov, R. Kobayashi, J. Normand, 
 K. Raghavachari, A. Rendell, J. C. Burant, S. S. Iyengar, J. Tomasi, 
 M. Cossi, N. Rega, J. M. Millam, M. Klene, J. E. Knox, J. B. Cross, 
 V. Bakken, C. Adamo, J. Jaramillo, R. Gomperts, R. E. Stratmann, 
 O. Yazyev, A. J. Austin, R. Cammi, C. Pomelli, J. W. Ochterski, 
 R. L. Martin, K. Morokuma, V. G. Zakrzewski, G. A. Voth, 
 P. Salvador, J. J. Dannenberg, S. Dapprich, A. D. Daniels, 
 O. Farkas, J. B. Foresman, J. V. Ortiz, J. Cioslowski, 
 and D. J. Fox, Gaussian, Inc., Wallingford CT, 2009.
 
 ******************************************
 Gaussian 09:  EM64L-G09RevA.02 11-Jun-2009
                 3-Dec-2021 
 ******************************************
 %Mem=3800MB
 %NProcShared=4
 Will use up to    4 processors via shared memory.
 %chk=/home/itamar/Aromaticity-test-set/T12-old-T14-Fulvenes/Penta-NH/penta-nh.ch
 k
 -----------------------------
 #P MP2/6-311++G** DENSITY=MP2
 -----------------------------
 1/30=1,38=1/1;
 2/12=2,17=6,18=5,40=1/2;
 3/5=4,6=6,7=1111,11=9,16=1,25=1,30=1,71=1/1,2,3;
 4//1;
 5/5=2,38=5/2;
 8/6=4,10=2/1;
 9/15=1,16=-3/6;
 10/5=1,13=10/2;
 6/7=2,8=2,9=2,10=2,22=2/1;
 99/5=1,9=1/99;
 Leave Link    1 at Fri Dec  3 17:33:25 2021, MaxMem=  498073600 cpu:       0.1
 (Enter /apps/software//g09/l101.exe)
 --------
 Penta-NH
 --------
 Symbolic Z-matrix:
 Charge =  0 Multiplicity = 1
 6                     0.        0.79392   0. 
 6                    -1.18158  -0.11776   0. 
 1                    -2.21024   0.21417   0. 
 6                    -0.71842  -1.37956   0. 
 1                    -1.31298  -2.28357   0. 
 6                     1.19861  -0.08828   0. 
 1                     2.21163   0.28453   0. 
 6                     0.7705   -1.36176   0. 
 1                     1.38541  -2.25149   0. 
 7                     0.05651   2.06911   0. 
 1                    -0.88406   2.47323   0. 
 
 NAtoms=     11 NQM=     11 NQMF=      0 NMic=      0 NMicF=      0 NTot=     11.
                    Isotopes and Nuclear Properties:
 (Nuclear quadrupole moments (NQMom) in fm**2, nuclear magnetic moments (NMagM)
  in nuclear magnetons)

  Atom         1           2           3           4           5           6           7           8           9          10
 IAtWgt=          12          12           1          12           1          12           1          12           1          14
 AtmWgt=  12.0000000  12.0000000   1.0078250  12.0000000   1.0078250  12.0000000   1.0078250  12.0000000   1.0078250  14.0030740
 NucSpn=           0           0           1           0           1           0           1           0           1           2
 AtZEff=   0.0000000   0.0000000   0.0000000   0.0000000   0.0000000   0.0000000   0.0000000   0.0000000   0.0000000   0.0000000
 NQMom=    0.0000000   0.0000000   0.0000000   0.0000000   0.0000000   0.0000000   0.0000000   0.0000000   0.0000000   2.0440000
 NMagM=    0.0000000   0.0000000   2.7928460   0.0000000   2.7928460   0.0000000   2.7928460   0.0000000   2.7928460   0.4037610

  Atom        11
 IAtWgt=           1
 AtmWgt=   1.0078250
 NucSpn=           1
 AtZEff=   0.0000000
 NQMom=    0.0000000
 NMagM=    2.7928460
 Leave Link  101 at Fri Dec  3 17:33:25 2021, MaxMem=  498073600 cpu:       0.2
 (Enter /apps/software//g09/l202.exe)
                          Input orientation:                          
 ---------------------------------------------------------------------
 Center     Atomic      Atomic             Coordinates (Angstroms)
 Number     Number       Type             X           Y           Z
 ---------------------------------------------------------------------
      1          6           0        0.000000    0.793915    0.000000
      2          6           0       -1.181577   -0.117759    0.000000
      3          1           0       -2.210238    0.214166    0.000000
      4          6           0       -0.718416   -1.379562    0.000000
      5          1           0       -1.312983   -2.283572    0.000000
      6          6           0        1.198611   -0.088275    0.000000
      7          1           0        2.211627    0.284532    0.000000
      8          6           0        0.770496   -1.361757    0.000000
      9          1           0        1.385413   -2.251489    0.000000
     10          7           0        0.056508    2.069109    0.000000
     11          1           0       -0.884059    2.473230    0.000000
 ---------------------------------------------------------------------
                    Distance matrix (angstroms):
                    1          2          3          4          5
     1  C    0.000000
     2  C    1.492405   0.000000
     3  H    2.285008   1.080887   0.000000
     4  C    2.289132   1.344122   2.183003   0.000000
     5  H    3.345871   2.169796   2.654009   1.082009   0.000000
     6  C    1.488263   2.380371   3.422239   2.311366   3.335781
     7  H    2.269530   3.416968   4.422425   3.369623   4.360967
     8  C    2.289233   2.314761   3.371692   1.489018   2.278295
     9  H    3.345722   3.338000   4.359835   2.277357   2.698587
    10  N    1.276445   2.513015   2.928985   3.534662   4.563040
    11  H    1.897804   2.608015   2.619565   3.856351   4.776101
                    6          7          8          9         10
     6  C    0.000000
     7  H    1.079438   0.000000
     8  C    1.343517   2.187950   0.000000
     9  H    2.171265   2.667214   1.081548   0.000000
    10  N    2.441046   2.798080   3.504372   4.520349   0.000000
    11  H    3.301336   3.791262   4.176683   5.241514   1.023709
                   11
    11  H    0.000000
 Stoichiometry    C5H5N
 Framework group  CS[SG(C5H5N)]
 Deg. of freedom    19
 Full point group                 CS      NOp   2
 Largest Abelian subgroup         CS      NOp   2
 Largest concise Abelian subgroup C1      NOp   1
                         Standard orientation:                         
 ---------------------------------------------------------------------
 Center     Atomic      Atomic             Coordinates (Angstroms)
 Number     Number       Type             X           Y           Z
 ---------------------------------------------------------------------
      1          6           0        0.000000    0.793915    0.000000
      2          6           0       -1.181577   -0.117759    0.000000
      3          1           0       -2.210238    0.214166    0.000000
      4          6           0       -0.718416   -1.379562    0.000000
      5          1           0       -1.312983   -2.283572    0.000000
      6          6           0        1.198611   -0.088275    0.000000
      7          1           0        2.211627    0.284532    0.000000
      8          6           0        0.770496   -1.361757    0.000000
      9          1           0        1.385413   -2.251489    0.000000
     10          7           0        0.056508    2.069109    0.000000
     11          1           0       -0.884059    2.473230    0.000000
 ---------------------------------------------------------------------
 Rotational constants (GHZ):      8.1976324      3.9025016      2.6438776
 Leave Link  202 at Fri Dec  3 17:33:25 2021, MaxMem=  498073600 cpu:       0.0
 (Enter /apps/software//g09/l301.exe)
 Standard basis: 6-311++G(d,p) (5D, 7F)
 Ernie: Thresh=  0.10000D-02 Tol=  0.10000D-05 Strict=F.
 There are   126 symmetry adapted basis functions of A'  symmetry.
 There are    41 symmetry adapted basis functions of A"  symmetry.
 Integral buffers will be    131072 words long.
 Raffenetti 1 integral format.
 Two-electron integral symmetry is turned on.
   167 basis functions,   261 primitive gaussians,   173 cartesian basis functions
    21 alpha electrons       21 beta electrons
       nuclear repulsion energy       201.3036980602 Hartrees.
 IExCor=    0 DFT=F Ex=HF Corr=None ExCW=0 ScaHFX=  1.000000
 ScaDFX=  1.000000  1.000000  1.000000  1.000000 ScalE2=  1.000000  1.000000
 IRadAn=      0 IRanWt=     -1 IRanGd=            0 ICorTp=0
 NAtoms=   11 NActive=   11 NUniq=   11 SFac= 7.50D-01 NAtFMM=   80 NAOKFM=F Big=F
 Leave Link  301 at Fri Dec  3 17:33:25 2021, MaxMem=  498073600 cpu:       0.2
 (Enter /apps/software//g09/l302.exe)
 NPDir=0 NMtPBC=     1 NCelOv=     1 NCel=       1 NClECP=     1 NCelD=      1
         NCelK=      1 NCelE2=     1 NClLst=     1 CellRange=     0.0.
 One-electron integrals computed using PRISM.
 NBasis=   167 RedAO= T  NBF=   126    41
 NBsUse=   167 1.00D-06 NBFU=   126    41
 Leave Link  302 at Fri Dec  3 17:33:26 2021, MaxMem=  498073600 cpu:       0.7
 (Enter /apps/software//g09/l303.exe)
 DipDrv:  MaxL=1.
 Leave Link  303 at Fri Dec  3 17:33:26 2021, MaxMem=  498073600 cpu:       0.1
 (Enter /apps/software//g09/l401.exe)
 Harris functional with IExCor=  205 diagonalized for initial guess.
 ExpMin= 3.60D-02 ExpMax= 6.29D+03 ExpMxC= 9.49D+02 IAcc=3 IRadAn=         0 AccDes= 0.00D+00
 HarFok:  IExCor=  205 AccDes= 0.00D+00 IRadAn=         0 IDoV= 1
 ScaDFX=  1.000000  1.000000  1.000000  1.000000
 FoFCou: FMM=F IPFlag=           0 FMFlag=      100000 FMFlg1=           0
         NFxFlg=           0 DoJE=T BraDBF=F KetDBF=T FulRan=T
         Omega=  0.000000  0.000000  1.000000  0.000000  0.000000 ICntrl=     500 IOpCl=  0
         NMat0=    1 NMatS0=    1 NMatT0=    0 NMatD0=    1 NMtDS0=    0 NMtDT0=    0
         I1Cent=           4 NGrid=           0.
 Petite list used in FoFCou.
 Harris En= -247.050939020271    
 Initial guess orbital symmetries:
       Occupied  (A') (A') (A') (A') (A') (A') (A') (A') (A') (A')
                 (A') (A') (A') (A') (A') (A') (A") (A') (A") (A')
                 (A")
       Virtual   (A") (A") (A") (A') (A') (A') (A') (A') (A') (A")
                 (A') (A') (A") (A') (A") (A') (A') (A') (A') (A')
                 (A') (A') (A") (A") (A') (A') (A') (A') (A") (A')
                 (A') (A') (A') (A') (A') (A') (A') (A') (A') (A')
                 (A') (A') (A') (A') (A") (A') (A') (A") (A') (A")
                 (A') (A") (A") (A') (A') (A') (A') (A') (A') (A')
                 (A') (A') (A") (A') (A') (A') (A') (A") (A') (A')
                 (A") (A") (A') (A') (A") (A") (A') (A") (A') (A')
                 (A') (A') (A') (A") (A') (A") (A') (A") (A') (A")
                 (A') (A") (A") (A') (A') (A') (A') (A') (A') (A")
                 (A') (A") (A') (A") (A') (A') (A") (A') (A") (A')
                 (A') (A') (A") (A') (A") (A') (A") (A') (A') (A')
                 (A') (A') (A") (A") (A') (A') (A') (A') (A') (A')
                 (A') (A') (A") (A') (A') (A') (A') (A') (A') (A')
                 (A') (A') (A') (A') (A') (A')
 The electronic state of the initial guess is 1-A'.
 Leave Link  401 at Fri Dec  3 17:33:26 2021, MaxMem=  498073600 cpu:       2.4
 (Enter /apps/software//g09/l502.exe)
 Closed shell SCF:
 Requested convergence on RMS density matrix=1.00D-08 within 128 cycles.
 Requested convergence on MAX density matrix=1.00D-06.
 Requested convergence on             energy=1.00D-06.
 No special actions if energy rises.
 Using DIIS extrapolation, IDIIS=  1040.
 Integral symmetry usage will be decided dynamically.
 Keep R1 ints in memory in canonical form, NReq=116018085.
 IEnd=      110320 IEndB=      110320 NGot=   498073600 MDV=   384736169
 LenX=   384736169 LenY=   384705799
 Symmetry not used in FoFDir.
 MinBra= 0 MaxBra= 2 Meth= 1.
 IRaf=       0 NMat=   1 IRICut=       1 DoRegI=T DoRafI=F ISym2E= 0 JSym2E=0.

 Cycle   1  Pass 1  IDiag  1:
 E= -246.428401331813    
 DIIS: error= 7.29D-02 at cycle   1 NSaved=   1.
 NSaved= 1 IEnMin= 1 EnMin= -246.428401331813     IErMin= 1 ErrMin= 7.29D-02
 ErrMax= 7.29D-02 EMaxC= 1.00D-01 BMatC= 5.14D-01 BMatP= 5.14D-01
 IDIUse=3 WtCom= 2.71D-01 WtEn= 7.29D-01
 Coeff-Com:  0.100D+01
 Coeff-En:   0.100D+01
 Coeff:      0.100D+01
 Gap=     0.320 Goal=   None    Shift=    0.000
 GapD=    0.320 DampG=1.000 DampE=0.500 DampFc=0.5000 IDamp=-1.
 Damping current iteration by 5.00D-01
 RMSDP=9.65D-03 MaxDP=3.36D-01              OVMax= 1.56D-01

 Cycle   2  Pass 1  IDiag  1:
 E= -246.572066268793     Delta-E=       -0.143664936981 Rises=F Damp=T
 DIIS: error= 2.98D-02 at cycle   2 NSaved=   2.
 NSaved= 2 IEnMin= 2 EnMin= -246.572066268793     IErMin= 2 ErrMin= 2.98D-02
 ErrMax= 2.98D-02 EMaxC= 1.00D-01 BMatC= 1.12D-01 BMatP= 5.14D-01
 IDIUse=3 WtCom= 7.02D-01 WtEn= 2.98D-01
 Coeff-Com: -0.719D+00 0.172D+01
 Coeff-En:   0.000D+00 0.100D+01
 Coeff:     -0.505D+00 0.150D+01
 Gap=     0.376 Goal=   None    Shift=    0.000
 RMSDP=1.56D-02 MaxDP=9.03D-01 DE=-1.44D-01 OVMax= 4.43D-02

 Cycle   3  Pass 1  IDiag  1:
 E= -246.701331543167     Delta-E=       -0.129265274374 Rises=F Damp=F
 DIIS: error= 2.84D-03 at cycle   3 NSaved=   3.
 NSaved= 3 IEnMin= 3 EnMin= -246.701331543167     IErMin= 3 ErrMin= 2.84D-03
 ErrMax= 2.84D-03 EMaxC= 1.00D-01 BMatC= 8.19D-04 BMatP= 1.12D-01
 IDIUse=3 WtCom= 9.72D-01 WtEn= 2.84D-02
 Coeff-Com: -0.664D-01 0.916D-01 0.975D+00
 Coeff-En:   0.000D+00 0.000D+00 0.100D+01
 Coeff:     -0.645D-01 0.890D-01 0.975D+00
 Gap=     0.368 Goal=   None    Shift=    0.000
 RMSDP=1.96D-03 MaxDP=1.12D-01 DE=-1.29D-01 OVMax= 7.83D-03

 Cycle   4  Pass 1  IDiag  1:
 E= -246.702277391602     Delta-E=       -0.000945848434 Rises=F Damp=F
 DIIS: error= 9.29D-04 at cycle   4 NSaved=   4.
 NSaved= 4 IEnMin= 4 EnMin= -246.702277391602     IErMin= 4 ErrMin= 9.29D-04
 ErrMax= 9.29D-04 EMaxC= 1.00D-01 BMatC= 4.37D-05 BMatP= 8.19D-04
 IDIUse=3 WtCom= 9.91D-01 WtEn= 9.29D-03
 Coeff-Com:  0.580D-02-0.157D-01 0.143D-01 0.996D+00
 Coeff-En:   0.000D+00 0.000D+00 0.000D+00 0.100D+01
 Coeff:      0.574D-02-0.156D-01 0.141D-01 0.996D+00
 Gap=     0.369 Goal=   None    Shift=    0.000
 RMSDP=5.64D-04 MaxDP=2.87D-02 DE=-9.46D-04 OVMax= 3.60D-03

 Cycle   5  Pass 1  IDiag  1:
 E= -246.702347892777     Delta-E=       -0.000070501175 Rises=F Damp=F
 DIIS: error= 3.05D-04 at cycle   5 NSaved=   5.
 NSaved= 5 IEnMin= 5 EnMin= -246.702347892777     IErMin= 5 ErrMin= 3.05D-04
 ErrMax= 3.05D-04 EMaxC= 1.00D-01 BMatC= 9.88D-06 BMatP= 4.37D-05
 IDIUse=3 WtCom= 9.97D-01 WtEn= 3.05D-03
 Coeff-Com:  0.907D-02-0.151D-01-0.955D-01 0.240D+00 0.862D+00
 Coeff-En:   0.000D+00 0.000D+00 0.000D+00 0.000D+00 0.100D+01
 Coeff:      0.904D-02-0.151D-01-0.952D-01 0.239D+00 0.862D+00
 Gap=     0.369 Goal=   None    Shift=    0.000
 RMSDP=2.72D-04 MaxDP=1.44D-02 DE=-7.05D-05 OVMax= 1.53D-03

 Cycle   6  Pass 1  IDiag  1:
 E= -246.702362316527     Delta-E=       -0.000014423750 Rises=F Damp=F
 DIIS: error= 1.63D-04 at cycle   6 NSaved=   6.
 NSaved= 6 IEnMin= 6 EnMin= -246.702362316527     IErMin= 6 ErrMin= 1.63D-04
 ErrMax= 1.63D-04 EMaxC= 1.00D-01 BMatC= 8.89D-07 BMatP= 9.88D-06
 IDIUse=3 WtCom= 9.98D-01 WtEn= 1.63D-03
 Coeff-Com:  0.117D-02-0.151D-02-0.171D-01-0.644D-01 0.171D+00 0.911D+00
 Coeff-En:   0.000D+00 0.000D+00 0.000D+00 0.000D+00 0.000D+00 0.100D+01
 Coeff:      0.117D-02-0.151D-02-0.170D-01-0.643D-01 0.171D+00 0.911D+00
 Gap=     0.369 Goal=   None    Shift=    0.000
 RMSDP=4.51D-05 MaxDP=2.11D-03 DE=-1.44D-05 OVMax= 5.65D-04

 Cycle   7  Pass 1  IDiag  1:
 E= -246.702363979990     Delta-E=       -0.000001663463 Rises=F Damp=F
 DIIS: error= 3.84D-05 at cycle   7 NSaved=   7.
 NSaved= 7 IEnMin= 7 EnMin= -246.702363979990     IErMin= 7 ErrMin= 3.84D-05
 ErrMax= 3.84D-05 EMaxC= 1.00D-01 BMatC= 1.06D-07 BMatP= 8.89D-07
 IDIUse=1 WtCom= 1.00D+00 WtEn= 0.00D+00
 Coeff-Com: -0.327D-03 0.596D-03 0.408D-02-0.317D-01-0.224D-01 0.160D+00
 Coeff-Com:  0.890D+00
 Coeff:     -0.327D-03 0.596D-03 0.408D-02-0.317D-01-0.224D-01 0.160D+00
 Coeff:      0.890D+00
 Gap=     0.369 Goal=   None    Shift=    0.000
 RMSDP=1.73D-05 MaxDP=7.36D-04 DE=-1.66D-06 OVMax= 2.84D-04

 Cycle   8  Pass 1  IDiag  1:
 E= -246.702364253802     Delta-E=       -0.000000273813 Rises=F Damp=F
 DIIS: error= 3.58D-05 at cycle   8 NSaved=   8.
 NSaved= 8 IEnMin= 8 EnMin= -246.702364253802     IErMin= 8 ErrMin= 3.58D-05
 ErrMax= 3.58D-05 EMaxC= 1.00D-01 BMatC= 2.02D-08 BMatP= 1.06D-07
 IDIUse=1 WtCom= 1.00D+00 WtEn= 0.00D+00
 Coeff-Com: -0.261D-03 0.350D-03 0.381D-02 0.105D-01-0.260D-01-0.194D+00
 Coeff-Com: -0.118D+00 0.132D+01
 Coeff:     -0.261D-03 0.350D-03 0.381D-02 0.105D-01-0.260D-01-0.194D+00
 Coeff:     -0.118D+00 0.132D+01
 Gap=     0.369 Goal=   None    Shift=    0.000
 RMSDP=6.30D-06 MaxDP=2.21D-04 DE=-2.74D-07 OVMax= 3.39D-04

 Cycle   9  Pass 1  IDiag  1:
 E= -246.702364376611     Delta-E=       -0.000000122809 Rises=F Damp=F
 DIIS: error= 1.29D-05 at cycle   9 NSaved=   9.
 NSaved= 9 IEnMin= 9 EnMin= -246.702364376611     IErMin= 9 ErrMin= 1.29D-05
 ErrMax= 1.29D-05 EMaxC= 1.00D-01 BMatC= 5.33D-09 BMatP= 2.02D-08
 IDIUse=1 WtCom= 1.00D+00 WtEn= 0.00D+00
 Coeff-Com:  0.963D-04-0.157D-03-0.130D-02 0.240D-02 0.140D-01-0.205D-02
 Coeff-Com: -0.218D+00-0.413D-01 0.125D+01
 Coeff:      0.963D-04-0.157D-03-0.130D-02 0.240D-02 0.140D-01-0.205D-02
 Coeff:     -0.218D+00-0.413D-01 0.125D+01
 Gap=     0.369 Goal=   None    Shift=    0.000
 RMSDP=3.33D-06 MaxDP=1.28D-04 DE=-1.23D-07 OVMax= 1.59D-04

 Cycle  10  Pass 1  IDiag  1:
 E= -246.702364401632     Delta-E=       -0.000000025021 Rises=F Damp=F
 DIIS: error= 5.76D-06 at cycle  10 NSaved=  10.
 NSaved=10 IEnMin=10 EnMin= -246.702364401632     IErMin=10 ErrMin= 5.76D-06
 ErrMax= 5.76D-06 EMaxC= 1.00D-01 BMatC= 8.11D-10 BMatP= 5.33D-09
 IDIUse=1 WtCom= 1.00D+00 WtEn= 0.00D+00
 Coeff-Com:  0.785D-04-0.111D-03-0.110D-02-0.251D-02 0.110D-01 0.450D-01
 Coeff-Com: -0.331D-01-0.226D+00 0.148D+00 0.106D+01
 Coeff:      0.785D-04-0.111D-03-0.110D-02-0.251D-02 0.110D-01 0.450D-01
 Coeff:     -0.331D-01-0.226D+00 0.148D+00 0.106D+01
 Gap=     0.369 Goal=   None    Shift=    0.000
 RMSDP=1.25D-06 MaxDP=5.72D-05 DE=-2.50D-08 OVMax= 6.34D-05

 Cycle  11  Pass 1  IDiag  1:
 E= -246.702364405605     Delta-E=       -0.000000003974 Rises=F Damp=F
 DIIS: error= 2.30D-06 at cycle  11 NSaved=  11.
 NSaved=11 IEnMin=11 EnMin= -246.702364405605     IErMin=11 ErrMin= 2.30D-06
 ErrMax= 2.30D-06 EMaxC= 1.00D-01 BMatC= 1.31D-10 BMatP= 8.11D-10
 IDIUse=1 WtCom= 1.00D+00 WtEn= 0.00D+00
 Coeff-Com: -0.119D-04 0.188D-04 0.224D-03-0.375D-03-0.191D-02-0.146D-02
 Coeff-Com:  0.251D-01 0.364D-01-0.254D+00-0.204D-01 0.122D+01
 Coeff:     -0.119D-04 0.188D-04 0.224D-03-0.375D-03-0.191D-02-0.146D-02
 Coeff:      0.251D-01 0.364D-01-0.254D+00-0.204D-01 0.122D+01
 Gap=     0.369 Goal=   None    Shift=    0.000
 RMSDP=5.54D-07 MaxDP=2.52D-05 DE=-3.97D-09 OVMax= 3.14D-05

 Cycle  12  Pass 1  IDiag  1:
 E= -246.702364406313     Delta-E=       -0.000000000708 Rises=F Damp=F
 DIIS: error= 4.14D-07 at cycle  12 NSaved=  12.
 NSaved=12 IEnMin=12 EnMin= -246.702364406313     IErMin=12 ErrMin= 4.14D-07
 ErrMax= 4.14D-07 EMaxC= 1.00D-01 BMatC= 1.99D-11 BMatP= 1.31D-10
 IDIUse=1 WtCom= 1.00D+00 WtEn= 0.00D+00
 Coeff-Com: -0.125D-04 0.187D-04 0.187D-03 0.169D-03-0.175D-02-0.554D-02
 Coeff-Com:  0.843D-02 0.372D-01-0.854D-01-0.147D+00 0.330D+00 0.864D+00
 Coeff:     -0.125D-04 0.187D-04 0.187D-03 0.169D-03-0.175D-02-0.554D-02
 Coeff:      0.843D-02 0.372D-01-0.854D-01-0.147D+00 0.330D+00 0.864D+00
 Gap=     0.369 Goal=   None    Shift=    0.000
 RMSDP=1.99D-07 MaxDP=9.00D-06 DE=-7.08D-10 OVMax= 7.33D-06

 Cycle  13  Pass 1  IDiag  1:
 E= -246.702364406363     Delta-E=       -0.000000000050 Rises=F Damp=F
 DIIS: error= 1.91D-07 at cycle  13 NSaved=  13.
 NSaved=13 IEnMin=13 EnMin= -246.702364406363     IErMin=13 ErrMin= 1.91D-07
 ErrMax= 1.91D-07 EMaxC= 1.00D-01 BMatC= 9.87D-13 BMatP= 1.99D-11
 IDIUse=1 WtCom= 1.00D+00 WtEn= 0.00D+00
 Coeff-Com:  0.628D-06-0.102D-05-0.201D-04 0.682D-04 0.171D-03-0.204D-03
 Coeff-Com: -0.393D-02-0.140D-02 0.366D-01-0.117D-01-0.137D+00-0.249D-01
 Coeff-Com:  0.114D+01
 Coeff:      0.628D-06-0.102D-05-0.201D-04 0.682D-04 0.171D-03-0.204D-03
 Coeff:     -0.393D-02-0.140D-02 0.366D-01-0.117D-01-0.137D+00-0.249D-01
 Coeff:      0.114D+01
 Gap=     0.369 Goal=   None    Shift=    0.000
 RMSDP=6.38D-08 MaxDP=3.21D-06 DE=-4.96D-11 OVMax= 1.44D-06

 Cycle  14  Pass 1  IDiag  1:
 E= -246.702364406366     Delta-E=       -0.000000000003 Rises=F Damp=F
 DIIS: error= 3.17D-08 at cycle  14 NSaved=  14.
 NSaved=14 IEnMin=14 EnMin= -246.702364406366     IErMin=14 ErrMin= 3.17D-08
 ErrMax= 3.17D-08 EMaxC= 1.00D-01 BMatC= 6.93D-14 BMatP= 9.87D-13
 IDIUse=1 WtCom= 1.00D+00 WtEn= 0.00D+00
 Coeff-Com:  0.305D-06-0.450D-06-0.342D-05-0.212D-04 0.415D-04 0.283D-03
 Coeff-Com:  0.274D-03-0.125D-02-0.278D-02 0.456D-02 0.221D-01-0.575D-01
 Coeff-Com: -0.207D+00 0.124D+01
 Coeff:      0.305D-06-0.450D-06-0.342D-05-0.212D-04 0.415D-04 0.283D-03
 Coeff:      0.274D-03-0.125D-02-0.278D-02 0.456D-02 0.221D-01-0.575D-01
 Coeff:     -0.207D+00 0.124D+01
 Gap=     0.369 Goal=   None    Shift=    0.000
 RMSDP=1.31D-08 MaxDP=7.26D-07 DE=-3.18D-12 OVMax= 2.52D-07

 Cycle  15  Pass 1  IDiag  1:
 E= -246.702364406367     Delta-E=       -0.000000000001 Rises=F Damp=F
 DIIS: error= 6.73D-09 at cycle  15 NSaved=  15.
 NSaved=15 IEnMin=15 EnMin= -246.702364406367     IErMin=15 ErrMin= 6.73D-09
 ErrMax= 6.73D-09 EMaxC= 1.00D-01 BMatC= 4.34D-15 BMatP= 6.93D-14
 IDIUse=1 WtCom= 1.00D+00 WtEn= 0.00D+00
 Coeff-Com: -0.142D-06 0.222D-06 0.235D-05 0.246D-05-0.231D-04-0.779D-04
 Coeff-Com:  0.126D-03 0.530D-03-0.116D-02-0.206D-02 0.541D-02 0.118D-01
 Coeff-Com: -0.385D-02-0.335D+00 0.132D+01
 Coeff:     -0.142D-06 0.222D-06 0.235D-05 0.246D-05-0.231D-04-0.779D-04
 Coeff:      0.126D-03 0.530D-03-0.116D-02-0.206D-02 0.541D-02 0.118D-01
 Coeff:     -0.385D-02-0.335D+00 0.132D+01
 Gap=     0.369 Goal=   None    Shift=    0.000
 RMSDP=2.11D-09 MaxDP=4.02D-08 DE=-7.96D-13 OVMax= 5.32D-08

 SCF Done:  E(RHF) =  -246.702364406     A.U. after   15 cycles
             Convg  =    0.2115D-08             -V/T =  2.0013
 KE= 2.463775787362D+02 PE=-9.776901907306D+02 EE= 2.833065495278D+02
 Leave Link  502 at Fri Dec  3 17:33:32 2021, MaxMem=  498073600 cpu:      23.3
 (Enter /apps/software//g09/l801.exe)
 ExpMin= 3.60D-02 ExpMax= 6.29D+03 ExpMxC= 9.49D+02 IAcc=3 IRadAn=         5 AccDes= 0.00D+00
 HarFok:  IExCor=  205 AccDes= 0.00D+00 IRadAn=         5 IDoV=-2
 ScaDFX=  1.000000  1.000000  1.000000  1.000000
 Largest valence mixing into a core orbital is  1.34D-04
 Largest core mixing into a valence orbital is  4.35D-05
 Range of M.O.s used for correlation:     7   167
 NBasis=   167 NAE=    21 NBE=    21 NFC=     6 NFV=     0
 NROrb=    161 NOA=    15 NOB=    15 NVA=   146 NVB=   146

 **** Warning!!: The largest alpha MO coefficient is  0.12014467D+03

 Leave Link  801 at Fri Dec  3 17:33:32 2021, MaxMem=  498073600 cpu:       0.8
 (Enter /apps/software//g09/l906.exe)
 Frozen-core derivative calculation, NFC=   6 NFV=   0.
 FulOut=F Deriv=T AODrv=F NAtomX=    11
   MMem=         188  MDisk=          15 MDiskD=          15
  W3Min=      606711 MinDsk=      936625 NBas6D=         173
 NBas2D=       15300    NTT=       15051    LW2=     2040000
    MDV=   497713096 MDiskM=       39797 NBas2p=       15159
 Fully in-core method, ICMem=   241282946.
 IMap=   1   2   3   4   5   6   7   8   9  10  11  12  13  14  15  16  17  18  19  20
 IMap=  21
 JobTyp=1 Pass  1 fully in-core, NPsUse=  4.
 Compute canonical integrals, IntTyp=   4.
 Symmetry not used in FoFDir.
 MinBra= 0 MaxBra= 2 Meth= 1.
 IRaf=       0 NMat=   1 IRICut=       1 DoRegI=T DoRafI=F ISym2E= 0 JSym2E=0.
 Spin components of T(2) and E(2):
     alpha-alpha T2 =       0.4012614609D-01 E2=     -0.1099345047D+00
     alpha-beta  T2 =       0.2289366485D+00 E2=     -0.6353809694D+00
     beta-beta   T2 =       0.4012614609D-01 E2=     -0.1099345047D+00
 The integrals were generated   1 times.
 ANorm=    0.1144197946D+01
 E2 =    -0.8552499789D+00 EUMP2 =    -0.24755761438523D+03
 Leave Link  906 at Fri Dec  3 17:33:55 2021, MaxMem=  498073600 cpu:      91.0
 (Enter /apps/software//g09/l1002.exe)
 Minotr:  Closed shell wavefunction.
          Computing MP2/KS-MP2 derivatives.
          Using Z-Vector for PSCF gradient.
          Skipping F1 and S1 gradient terms here.
          Frozen-core window.
          Direct CPHF calculation.
          Differentiating once with respect to electric field.
                with respect to dipole field.
          Electric field/nuclear overlap derivatives assumed to be zero.
          Using symmetry in CPHF.
          Requested convergence is 1.0D-10 RMS, and 1.0D-09 maximum.
          NewPWx=F KeepS1=T KeepF1=T KeepIn=T MapXYZ=F SortEE=F KeepMc=T.
          MDV=     498073508 using IRadAn=       0.
          Keep R1 ints in memory in canonical form, NReq=114095173.
 Symmetry not used in FoFDir.
 MinBra= 0 MaxBra= 2 Meth= 1.
 IRaf=       0 NMat=   1 IRICut=       1 DoRegI=T DoRafI=F ISym2E= 0 JSym2E=0.
          Solving linear equations separately, MaxMat=       0.
          There are     1 degrees of freedom in the 1st order CPHF.  IDoFFX=0.
 LinEq1:  Iter=  0 NonCon=     1 RMS=4.34D-03 Max=6.68D-02
 AX will form     1 AO Fock derivatives at one time.
 LinEq1:  Iter=  1 NonCon=     1 RMS=1.08D-03 Max=1.41D-02
 LinEq1:  Iter=  2 NonCon=     1 RMS=4.00D-04 Max=1.04D-02
 LinEq1:  Iter=  3 NonCon=     1 RMS=1.54D-04 Max=2.39D-03
 LinEq1:  Iter=  4 NonCon=     1 RMS=6.76D-05 Max=1.74D-03
 LinEq1:  Iter=  5 NonCon=     1 RMS=1.84D-05 Max=5.05D-04
 LinEq1:  Iter=  6 NonCon=     1 RMS=3.87D-06 Max=5.36D-05
 LinEq1:  Iter=  7 NonCon=     1 RMS=1.76D-06 Max=4.28D-05
 LinEq1:  Iter=  8 NonCon=     1 RMS=5.30D-07 Max=9.26D-06
 LinEq1:  Iter=  9 NonCon=     1 RMS=1.57D-07 Max=2.30D-06
 LinEq1:  Iter= 10 NonCon=     1 RMS=5.73D-08 Max=1.14D-06
 LinEq1:  Iter= 11 NonCon=     1 RMS=1.72D-08 Max=4.20D-07
 LinEq1:  Iter= 12 NonCon=     1 RMS=7.36D-09 Max=1.81D-07
 LinEq1:  Iter= 13 NonCon=     1 RMS=1.79D-09 Max=1.75D-08
 LinEq1:  Iter= 14 NonCon=     1 RMS=2.94D-10 Max=2.94D-09
 LinEq1:  Iter= 15 NonCon=     0 RMS=4.34D-11 Max=6.26D-10
 Linear equations converged to 1.000D-10 1.000D-09 after    15 iterations.
 End of Minotr Frequency-dependent properties file   721 does not exist.
 End of Minotr Frequency-dependent properties file   722 does not exist.
 Leave Link 1002 at Fri Dec  3 17:34:01 2021, MaxMem=  498073600 cpu:      22.5
 (Enter /apps/software//g09/l601.exe)
 Copying SCF densities to generalized density rwf, IOpCl= 0 IROHF=0.

 **********************************************************************

            Population analysis using the MP2 density.

 **********************************************************************

 Orbital symmetries:
       Occupied  (A') (A') (A') (A') (A') (A') (A') (A') (A') (A')
                 (A') (A') (A') (A') (A') (A') (A') (A") (A') (A")
                 (A")
       Virtual   (A') (A") (A') (A') (A') (A') (A") (A') (A') (A")
                 (A") (A') (A") (A') (A') (A") (A') (A') (A') (A')
                 (A') (A') (A") (A') (A') (A") (A') (A') (A') (A")
                 (A') (A') (A') (A') (A') (A') (A') (A') (A') (A')
                 (A') (A') (A') (A') (A') (A") (A') (A") (A') (A")
                 (A') (A") (A") (A') (A') (A') (A') (A') (A') (A')
                 (A') (A') (A') (A') (A") (A') (A') (A') (A") (A')
                 (A') (A') (A") (A") (A") (A") (A') (A") (A') (A')
                 (A') (A") (A') (A') (A') (A") (A') (A") (A") (A')
                 (A') (A") (A") (A') (A') (A') (A') (A') (A') (A")
                 (A') (A") (A') (A") (A') (A') (A") (A') (A') (A")
                 (A') (A') (A') (A') (A') (A') (A') (A") (A") (A')
                 (A") (A') (A") (A") (A') (A') (A') (A') (A') (A')
                 (A') (A') (A') (A") (A') (A') (A') (A') (A') (A')
                 (A') (A') (A') (A') (A') (A')
 The electronic state is 1-A'.
 Alpha  occ. eigenvalues --  -15.57047 -11.29608 -11.26118 -11.25446 -11.24503
 Alpha  occ. eigenvalues --  -11.24110  -1.23421  -1.14262  -0.99273  -0.90064
 Alpha  occ. eigenvalues --   -0.76994  -0.74161  -0.70994  -0.61381  -0.58803
 Alpha  occ. eigenvalues --   -0.55969  -0.53738  -0.52875  -0.43067  -0.39989
 Alpha  occ. eigenvalues --   -0.33151
 Alpha virt. eigenvalues --    0.03738   0.04286   0.04609   0.05227   0.06924
 Alpha virt. eigenvalues --    0.07972   0.12135   0.12256   0.14420   0.14636
 Alpha virt. eigenvalues --    0.15203   0.15224   0.15602   0.17407   0.17688
 Alpha virt. eigenvalues --    0.17984   0.18639   0.19858   0.20028   0.20312
 Alpha virt. eigenvalues --    0.20606   0.22752   0.24994   0.25371   0.26061
 Alpha virt. eigenvalues --    0.26688   0.28109   0.28167   0.29969   0.33162
 Alpha virt. eigenvalues --    0.33552   0.35238   0.37055   0.38812   0.39955
 Alpha virt. eigenvalues --    0.40708   0.41960   0.44883   0.45431   0.52249
 Alpha virt. eigenvalues --    0.57851   0.60104   0.63910   0.68562   0.70105
 Alpha virt. eigenvalues --    0.71414   0.72565   0.73766   0.74266   0.76093
 Alpha virt. eigenvalues --    0.77522   0.82158   0.82636   0.83631   0.89021
 Alpha virt. eigenvalues --    0.90958   0.93257   0.97722   0.98905   0.99766
 Alpha virt. eigenvalues --    1.00105   1.05560   1.06693   1.08477   1.09503
 Alpha virt. eigenvalues --    1.09605   1.11265   1.16206   1.19306   1.19537
 Alpha virt. eigenvalues --    1.22535   1.25237   1.27558   1.30967   1.35361
 Alpha virt. eigenvalues --    1.43209   1.52503   1.59431   1.66259   1.73235
 Alpha virt. eigenvalues --    1.78200   1.79716   1.80197   1.81235   1.83512
 Alpha virt. eigenvalues --    1.84763   1.93905   1.99705   2.00719   2.00934
 Alpha virt. eigenvalues --    2.05327   2.09942   2.10991   2.13184   2.19928
 Alpha virt. eigenvalues --    2.21431   2.24163   2.26995   2.33729   2.38111
 Alpha virt. eigenvalues --    2.41518   2.42283   2.50380   2.56636   2.66132
 Alpha virt. eigenvalues --    2.68600   2.73164   2.81842   2.84904   2.87905
 Alpha virt. eigenvalues --    2.91937   2.94538   2.98602   3.01505   3.04807
 Alpha virt. eigenvalues --    3.05905   3.06645   3.07392   3.17172   3.19271
 Alpha virt. eigenvalues --    3.20732   3.26502   3.35556   3.37719   3.46264
 Alpha virt. eigenvalues --    3.49097   3.52913   3.65194   3.68080   3.77555
 Alpha virt. eigenvalues --    3.89396   3.91176   4.34019   4.38718   4.44944
 Alpha virt. eigenvalues --    4.45164   4.45556   4.86310   5.04460   5.39791
 Alpha virt. eigenvalues --   24.81391  24.94708  25.07432  25.37867  25.40491
 Alpha virt. eigenvalues --   37.11241
          Condensed to atoms (all electrons):
              1          2          3          4          5          6
     1  C    9.539408  -2.541668  -0.260385   1.012843   0.084009  -2.598484
     2  C   -2.541668  12.326319   0.752407  -5.326218  -0.377083  -3.738985
     3  H   -0.260385   0.752407   0.558949  -0.294306  -0.026205  -0.084885
     4  C    1.012843  -5.326218  -0.294306  11.154902   0.732455   4.595549
     5  H    0.084009  -0.377083  -0.026205   0.732455   0.563468   0.213865
     6  C   -2.598484  -3.738985  -0.084885   4.595549   0.213865  14.499050
     7  H   -0.247452  -0.118973  -0.003723   0.180855   0.006314   0.830314
     8  C    1.376941   4.070624   0.150978  -4.992922  -0.360769  -6.508352
     9  H    0.087124   0.207487   0.005466  -0.373173  -0.024156  -0.424315
    10  N    0.160190   0.552055   0.008402  -0.296292  -0.008320  -0.884461
    11  H   -0.025111  -0.145294  -0.006908   0.057201   0.001991   0.130830
              7          8          9         10         11
     1  C   -0.247452   1.376941   0.087124   0.160190  -0.025111
     2  C   -0.118973   4.070624   0.207487   0.552055  -0.145294
     3  H   -0.003723   0.150978   0.005466   0.008402  -0.006908
     4  C    0.180855  -4.992922  -0.373173  -0.296292   0.057201
     5  H    0.006314  -0.360769  -0.024156  -0.008320   0.001991
     6  C    0.830314  -6.508352  -0.424315  -0.884461   0.130830
     7  H    0.552410  -0.380752  -0.028402  -0.026506   0.004958
     8  C   -0.380752  11.757957   0.779581   0.301984  -0.045982
     9  H   -0.028402   0.779581   0.569810   0.004722  -0.000605
    10  N   -0.026506   0.301984   0.004722   7.114751   0.225034
    11  H    0.004958  -0.045982  -0.000605   0.225034   0.595994
 Mulliken atomic charges:
              1
     1  C   -0.587414
     2  C    0.339331
     3  H    0.200209
     4  C   -0.450895
     5  H    0.194431
     6  C   -0.030125
     7  H    0.230958
     8  C   -0.149288
     9  H    0.196460
    10  N   -0.151559
    11  H    0.207893
 Sum of Mulliken atomic charges =   0.00000
 Mulliken charges with hydrogens summed into heavy atoms:
              1
     1  C   -0.587414
     2  C    0.539540
     4  C   -0.256464
     6  C    0.200833
     8  C    0.047172
    10  N    0.056334
 Sum of Mulliken charges with hydrogens summed into heavy atoms =   0.00000
 Electronic spatial extent (au):  <R**2>=            475.3264
 Charge=              0.0000 electrons
 Dipole moment (field-independent basis, Debye):
    X=             -1.4186    Y=             -1.6405    Z=              0.0000  Tot=              2.1688
 Quadrupole moment (field-independent basis, Debye-Ang):
   XX=            -32.2812   YY=            -35.6730   ZZ=            -39.0254
   XY=             -4.1943   XZ=              0.0000   YZ=              0.0000
 Traceless Quadrupole moment (field-independent basis, Debye-Ang):
   XX=              3.3786   YY=             -0.0131   ZZ=             -3.3655
   XY=             -4.1943   XZ=              0.0000   YZ=              0.0000
 Octapole moment (field-independent basis, Debye-Ang**2):
  XXX=             -1.1779  YYY=            -14.1684  ZZZ=              0.0000  XYY=            -11.4300
  XXY=              1.4845  XXZ=              0.0000  XZZ=             -0.3744  YZZ=              2.3887
  YYZ=              0.0000  XYZ=              0.0000
 Hexadecapole moment (field-independent basis, Debye-Ang**3):
 XXXX=           -204.3138 YYYY=           -393.0005 ZZZZ=            -46.7433 XXXY=             -1.4507
 XXXZ=              0.0000 YYYX=            -28.3117 YYYZ=              0.0000 ZZZX=              0.0000
 ZZZY=              0.0000 XXYY=            -94.0421 XXZZ=            -51.4179 YYZZ=            -78.6076
 XXYZ=              0.0000 YYXZ=              0.0000 ZZXY=             -0.0107
 N-N= 2.013036980602D+02 E-N=-9.785998535879D+02  KE= 2.474735996832D+02
 Symmetry A'   KE= 2.403589283954D+02
 Symmetry A"   KE= 7.114671287835D+00
 No NMR shielding tensors so no spin-rotation constants.
 Leave Link  601 at Fri Dec  3 17:34:01 2021, MaxMem=  498073600 cpu:       0.8
 (Enter /apps/software//g09/l9999.exe)
 1\1\GINC-DLT01\SP\RMP2-FC\6-311++G(d,p)\C5H5N1\ITAMAR\03-Dec-2021\0\\#
 P MP2/6-311++G** DENSITY=MP2\\Penta-NH\\0,1\C,0,0.,0.793915,0.\C,0,-1.
 181577,-0.117759,0.\H,0,-2.210238,0.214166,0.\C,0,-0.718416,-1.379562,
 0.\H,0,-1.312983,-2.283572,0.\C,0,1.198611,-0.088275,0.\H,0,2.211627,0
 .284532,0.\C,0,0.770496,-1.361757,0.\H,0,1.385413,-2.251489,0.\N,0,0.0
 56508,2.069109,0.\H,0,-0.884059,2.47323,0.\\Version=EM64L-G09RevA.02\S
 tate=1-A'\HF=-246.7023644\MP2=-247.5576144\RMSD=2.115e-09\Dipole=-0.55
 81073,-0.6454178,0.\Quadrupole=2.5119327,-0.009744,-2.5021886,-3.11835
 43,0.,0.\PG=CS [SG(C5H5N1)]\\@


 THE BEST WAY TO CONVINCE A FOOL THAT HE IS WRONG 
 IS TO LET HIM HAVE HIS OWN WAY.

                                         JOSH BILLINGS
 Job cpu time:  0 days  0 hours  2 minutes 22.4 seconds.
 File lengths (MBytes):  RWF=     14 Int=      0 D2E=      0 Chk=      4 Scr=      1
 Normal termination of Gaussian 09 at Fri Dec  3 17:34:01 2021.
