Chair-5                                                                 
SP        RMP2-FC                                                     6-311++G(d,p)       
Number of atoms                            I               12
Info1-9                                    I   N=           9
          19          19           0           0           0         110
           1           2           1
Full Title                                 C   N=           1
Chair-5     
Route                                      C   N=           3
#P MP2/6-311++G** nosymm Density=MP2
Charge                                     I                0
Multiplicity                               I                1
Number of electrons                        I               42
Number of alpha electrons                  I               21
Number of beta electrons                   I               21
Number of basis functions                  I              174
Number of independent functions            I              174
Number of point charges in /Mol/           I                0
Number of translation vectors              I                0
Atomic numbers                             I   N=          12
           6           6           6           6           6           6
           1           1           1           1           1           1
Nuclear charges                            R   N=          12
  6.00000000E+00  6.00000000E+00  6.00000000E+00  6.00000000E+00  6.00000000E+00
  6.00000000E+00  1.00000000E+00  1.00000000E+00  1.00000000E+00  1.00000000E+00
  1.00000000E+00  1.00000000E+00
Current cartesian coordinates              R   N=          36
  2.63326822E+00  0.00000000E+00  3.83122886E-02  1.31754283E+00  2.28284224E+00
 -3.83122886E-02 -1.31754283E+00  2.28284224E+00  3.83122886E-02 -2.63326822E+00
  0.00000000E+00 -3.83122886E-02 -1.31754283E+00 -2.28284224E+00  3.83122886E-02
  1.31754283E+00 -2.28284224E+00 -3.83122886E-02  4.68272382E+00  0.00000000E+00
  3.03511181E-02  2.34325765E+00  4.05700797E+00 -3.00644277E-02 -2.34325765E+00
  4.05700797E+00  3.00644277E-02 -4.68272382E+00  0.00000000E+00 -3.03511181E-02
 -2.34325765E+00 -4.05700797E+00  3.00644277E-02  2.34325765E+00 -4.05700797E+00
 -3.00644277E-02
Number of symbols in /Mol/                 I                0
Force Field                                I                0
Atom Types                                 C   N=          12
                                                            
                                                            
                        
Int Atom Types                             I   N=          12
           0           0           0           0           0           0
           0           0           0           0           0           0
MM charges                                 R   N=          12
  0.00000000E+00  0.00000000E+00  0.00000000E+00  0.00000000E+00  0.00000000E+00
  0.00000000E+00  0.00000000E+00  0.00000000E+00  0.00000000E+00  0.00000000E+00
  0.00000000E+00  0.00000000E+00
Integer atomic weights                     I   N=          12
          12          12          12          12          12          12
           1           1           1           1           1           1
Real atomic weights                        R   N=          12
  1.20000000E+01  1.20000000E+01  1.20000000E+01  1.20000000E+01  1.20000000E+01
  1.20000000E+01  1.00782504E+00  1.00782504E+00  1.00782504E+00  1.00782504E+00
  1.00782504E+00  1.00782504E+00
Atom fragment info                         I   N=          12
           0           0           0           0           0           0
           0           0           0           0           0           0
Atom residue num                           I   N=          12
           0           0           0           0           0           0
           0           0           0           0           0           0
Nuclear spins                              I   N=          12
           0           0           0           0           0           0
           1           1           1           1           1           1
Nuclear ZEff                               R   N=          12
 -3.60000000E+00 -3.60000000E+00 -3.60000000E+00 -3.60000000E+00 -3.60000000E+00
 -3.60000000E+00 -1.00000000E+00 -1.00000000E+00 -1.00000000E+00 -1.00000000E+00
 -1.00000000E+00 -1.00000000E+00
Nuclear ZNuc                               R   N=          12
  6.00000000E+00  6.00000000E+00  6.00000000E+00  6.00000000E+00  6.00000000E+00
  6.00000000E+00  1.00000000E+00  1.00000000E+00  1.00000000E+00  1.00000000E+00
  1.00000000E+00  1.00000000E+00
Nuclear QMom                               R   N=          12
  0.00000000E+00  0.00000000E+00  0.00000000E+00  0.00000000E+00  0.00000000E+00
  0.00000000E+00  0.00000000E+00  0.00000000E+00  0.00000000E+00  0.00000000E+00
  0.00000000E+00  0.00000000E+00
Nuclear GFac                               R   N=          12
  0.00000000E+00  0.00000000E+00  0.00000000E+00  0.00000000E+00  0.00000000E+00
  0.00000000E+00  2.79284600E+00  2.79284600E+00  2.79284600E+00  2.79284600E+00
  2.79284600E+00  2.79284600E+00
MicOpt                                     I   N=          12
          -1          -1          -1          -1          -1          -1
          -1          -1          -1          -1          -1          -1
Number of residues                         I                0
Number of secondary structures             I                0
Number of contracted shells                I               66
Number of primitive shells                 I              120
Pure/Cartesian d shells                    I                0
Pure/Cartesian f shells                    I                0
Highest angular momentum                   I                2
Largest degree of contraction              I                6
Shell types                                I   N=          66
           0          -1          -1          -1          -1          -2
           0          -1          -1          -1          -1          -2
           0          -1          -1          -1          -1          -2
           0          -1          -1          -1          -1          -2
           0          -1          -1          -1          -1          -2
           0          -1          -1          -1          -1          -2
           0           0           0           0           1           0
           0           0           0           1           0           0
           0           0           1           0           0           0
           0           1           0           0           0           0
           1           0           0           0           0           1
Number of primitives per shell             I   N=          66
           6           3           1           1           1           1
           6           3           1           1           1           1
           6           3           1           1           1           1
           6           3           1           1           1           1
           6           3           1           1           1           1
           6           3           1           1           1           1
           3           1           1           1           1           3
           1           1           1           1           3           1
           1           1           1           3           1           1
           1           1           3           1           1           1
           1           3           1           1           1           1
Shell to atom map                          I   N=          66
           1           1           1           1           1           1
           2           2           2           2           2           2
           3           3           3           3           3           3
           4           4           4           4           4           4
           5           5           5           5           5           5
           6           6           6           6           6           6
           7           7           7           7           7           8
           8           8           8           8           9           9
           9           9           9          10          10          10
          10          10          11          11          11          11
          11          12          12          12          12          12
Primitive exponents                        R   N=         120
  4.56324000E+03  6.82024000E+02  1.54973000E+02  4.44553000E+01  1.30290000E+01
  1.82773000E+00  2.09642000E+01  4.80331000E+00  1.45933000E+00  4.83456000E-01
  1.45585000E-01  4.38000000E-02  6.26000000E-01  4.56324000E+03  6.82024000E+02
  1.54973000E+02  4.44553000E+01  1.30290000E+01  1.82773000E+00  2.09642000E+01
  4.80331000E+00  1.45933000E+00  4.83456000E-01  1.45585000E-01  4.38000000E-02
  6.26000000E-01  4.56324000E+03  6.82024000E+02  1.54973000E+02  4.44553000E+01
  1.30290000E+01  1.82773000E+00  2.09642000E+01  4.80331000E+00  1.45933000E+00
  4.83456000E-01  1.45585000E-01  4.38000000E-02  6.26000000E-01  4.56324000E+03
  6.82024000E+02  1.54973000E+02  4.44553000E+01  1.30290000E+01  1.82773000E+00
  2.09642000E+01  4.80331000E+00  1.45933000E+00  4.83456000E-01  1.45585000E-01
  4.38000000E-02  6.26000000E-01  4.56324000E+03  6.82024000E+02  1.54973000E+02
  4.44553000E+01  1.30290000E+01  1.82773000E+00  2.09642000E+01  4.80331000E+00
  1.45933000E+00  4.83456000E-01  1.45585000E-01  4.38000000E-02  6.26000000E-01
  4.56324000E+03  6.82024000E+02  1.54973000E+02  4.44553000E+01  1.30290000E+01
  1.82773000E+00  2.09642000E+01  4.80331000E+00  1.45933000E+00  4.83456000E-01
  1.45585000E-01  4.38000000E-02  6.26000000E-01  3.38650000E+01  5.09479000E+00
  1.15879000E+00  3.25840000E-01  1.02741000E-01  3.60000000E-02  7.50000000E-01
  3.38650000E+01  5.09479000E+00  1.15879000E+00  3.25840000E-01  1.02741000E-01
  3.60000000E-02  7.50000000E-01  3.38650000E+01  5.09479000E+00  1.15879000E+00
  3.25840000E-01  1.02741000E-01  3.60000000E-02  7.50000000E-01  3.38650000E+01
  5.09479000E+00  1.15879000E+00  3.25840000E-01  1.02741000E-01  3.60000000E-02
  7.50000000E-01  3.38650000E+01  5.09479000E+00  1.15879000E+00  3.25840000E-01
  1.02741000E-01  3.60000000E-02  7.50000000E-01  3.38650000E+01  5.09479000E+00
  1.15879000E+00  3.25840000E-01  1.02741000E-01  3.60000000E-02  7.50000000E-01
Contraction coefficients                   R   N=         120
  1.96665025E-03  1.52306019E-02  7.61269097E-02  2.60801033E-01  6.16462078E-01
  2.21006028E-01  1.14660081E-01  9.19999648E-01 -3.03068213E-03  1.00000000E+00
  1.00000000E+00  1.00000000E+00  1.00000000E+00  1.96665025E-03  1.52306019E-02
  7.61269097E-02  2.60801033E-01  6.16462078E-01  2.21006028E-01  1.14660081E-01
  9.19999648E-01 -3.03068213E-03  1.00000000E+00  1.00000000E+00  1.00000000E+00
  1.00000000E+00  1.96665025E-03  1.52306019E-02  7.61269097E-02  2.60801033E-01
  6.16462078E-01  2.21006028E-01  1.14660081E-01  9.19999648E-01 -3.03068213E-03
  1.00000000E+00  1.00000000E+00  1.00000000E+00  1.00000000E+00  1.96665025E-03
  1.52306019E-02  7.61269097E-02  2.60801033E-01  6.16462078E-01  2.21006028E-01
  1.14660081E-01  9.19999648E-01 -3.03068213E-03  1.00000000E+00  1.00000000E+00
  1.00000000E+00  1.00000000E+00  1.96665025E-03  1.52306019E-02  7.61269097E-02
  2.60801033E-01  6.16462078E-01  2.21006028E-01  1.14660081E-01  9.19999648E-01
 -3.03068213E-03  1.00000000E+00  1.00000000E+00  1.00000000E+00  1.00000000E+00
  1.96665025E-03  1.52306019E-02  7.61269097E-02  2.60801033E-01  6.16462078E-01
  2.21006028E-01  1.14660081E-01  9.19999648E-01 -3.03068213E-03  1.00000000E+00
  1.00000000E+00  1.00000000E+00  1.00000000E+00  2.54938145E-02  1.90373109E-01
  8.52161486E-01  1.00000000E+00  1.00000000E+00  1.00000000E+00  1.00000000E+00
  2.54938145E-02  1.90373109E-01  8.52161486E-01  1.00000000E+00  1.00000000E+00
  1.00000000E+00  1.00000000E+00  2.54938145E-02  1.90373109E-01  8.52161486E-01
  1.00000000E+00  1.00000000E+00  1.00000000E+00  1.00000000E+00  2.54938145E-02
  1.90373109E-01  8.52161486E-01  1.00000000E+00  1.00000000E+00  1.00000000E+00
  1.00000000E+00  2.54938145E-02  1.90373109E-01  8.52161486E-01  1.00000000E+00
  1.00000000E+00  1.00000000E+00  1.00000000E+00  2.54938145E-02  1.90373109E-01
  8.52161486E-01  1.00000000E+00  1.00000000E+00  1.00000000E+00  1.00000000E+00
P(S=P) Contraction coefficients            R   N=         120
  0.00000000E+00  0.00000000E+00  0.00000000E+00  0.00000000E+00  0.00000000E+00
  0.00000000E+00  4.02486927E-02  2.37593957E-01  8.15853851E-01  1.00000000E+00
  1.00000000E+00  1.00000000E+00  0.00000000E+00  0.00000000E+00  0.00000000E+00
  0.00000000E+00  0.00000000E+00  0.00000000E+00  0.00000000E+00  4.02486927E-02
  2.37593957E-01  8.15853851E-01  1.00000000E+00  1.00000000E+00  1.00000000E+00
  0.00000000E+00  0.00000000E+00  0.00000000E+00  0.00000000E+00  0.00000000E+00
  0.00000000E+00  0.00000000E+00  4.02486927E-02  2.37593957E-01  8.15853851E-01
  1.00000000E+00  1.00000000E+00  1.00000000E+00  0.00000000E+00  0.00000000E+00
  0.00000000E+00  0.00000000E+00  0.00000000E+00  0.00000000E+00  0.00000000E+00
  4.02486927E-02  2.37593957E-01  8.15853851E-01  1.00000000E+00  1.00000000E+00
  1.00000000E+00  0.00000000E+00  0.00000000E+00  0.00000000E+00  0.00000000E+00
  0.00000000E+00  0.00000000E+00  0.00000000E+00  4.02486927E-02  2.37593957E-01
  8.15853851E-01  1.00000000E+00  1.00000000E+00  1.00000000E+00  0.00000000E+00
  0.00000000E+00  0.00000000E+00  0.00000000E+00  0.00000000E+00  0.00000000E+00
  0.00000000E+00  4.02486927E-02  2.37593957E-01  8.15853851E-01  1.00000000E+00
  1.00000000E+00  1.00000000E+00  0.00000000E+00  0.00000000E+00  0.00000000E+00
  0.00000000E+00  0.00000000E+00  0.00000000E+00  0.00000000E+00  0.00000000E+00
  0.00000000E+00  0.00000000E+00  0.00000000E+00  0.00000000E+00  0.00000000E+00
  0.00000000E+00  0.00000000E+00  0.00000000E+00  0.00000000E+00  0.00000000E+00
  0.00000000E+00  0.00000000E+00  0.00000000E+00  0.00000000E+00  0.00000000E+00
  0.00000000E+00  0.00000000E+00  0.00000000E+00  0.00000000E+00  0.00000000E+00
  0.00000000E+00  0.00000000E+00  0.00000000E+00  0.00000000E+00  0.00000000E+00
  0.00000000E+00  0.00000000E+00  0.00000000E+00  0.00000000E+00  0.00000000E+00
  0.00000000E+00  0.00000000E+00  0.00000000E+00  0.00000000E+00  0.00000000E+00
Coordinates of each shell                  R   N=         198
  2.63326822E+00  0.00000000E+00  3.83122886E-02  2.63326822E+00  0.00000000E+00
  3.83122886E-02  2.63326822E+00  0.00000000E+00  3.83122886E-02  2.63326822E+00
  0.00000000E+00  3.83122886E-02  2.63326822E+00  0.00000000E+00  3.83122886E-02
  2.63326822E+00  0.00000000E+00  3.83122886E-02  1.31754283E+00  2.28284224E+00
 -3.83122886E-02  1.31754283E+00  2.28284224E+00 -3.83122886E-02  1.31754283E+00
  2.28284224E+00 -3.83122886E-02  1.31754283E+00  2.28284224E+00 -3.83122886E-02
  1.31754283E+00  2.28284224E+00 -3.83122886E-02  1.31754283E+00  2.28284224E+00
 -3.83122886E-02 -1.31754283E+00  2.28284224E+00  3.83122886E-02 -1.31754283E+00
  2.28284224E+00  3.83122886E-02 -1.31754283E+00  2.28284224E+00  3.83122886E-02
 -1.31754283E+00  2.28284224E+00  3.83122886E-02 -1.31754283E+00  2.28284224E+00
  3.83122886E-02 -1.31754283E+00  2.28284224E+00  3.83122886E-02 -2.63326822E+00
  0.00000000E+00 -3.83122886E-02 -2.63326822E+00  0.00000000E+00 -3.83122886E-02
 -2.63326822E+00  0.00000000E+00 -3.83122886E-02 -2.63326822E+00  0.00000000E+00
 -3.83122886E-02 -2.63326822E+00  0.00000000E+00 -3.83122886E-02 -2.63326822E+00
  0.00000000E+00 -3.83122886E-02 -1.31754283E+00 -2.28284224E+00  3.83122886E-02
 -1.31754283E+00 -2.28284224E+00  3.83122886E-02 -1.31754283E+00 -2.28284224E+00
  3.83122886E-02 -1.31754283E+00 -2.28284224E+00  3.83122886E-02 -1.31754283E+00
 -2.28284224E+00  3.83122886E-02 -1.31754283E+00 -2.28284224E+00  3.83122886E-02
  1.31754283E+00 -2.28284224E+00 -3.83122886E-02  1.31754283E+00 -2.28284224E+00
 -3.83122886E-02  1.31754283E+00 -2.28284224E+00 -3.83122886E-02  1.31754283E+00
 -2.28284224E+00 -3.83122886E-02  1.31754283E+00 -2.28284224E+00 -3.83122886E-02
  1.31754283E+00 -2.28284224E+00 -3.83122886E-02  4.68272382E+00  0.00000000E+00
  3.03511181E-02  4.68272382E+00  0.00000000E+00  3.03511181E-02  4.68272382E+00
  0.00000000E+00  3.03511181E-02  4.68272382E+00  0.00000000E+00  3.03511181E-02
  4.68272382E+00  0.00000000E+00  3.03511181E-02  2.34325765E+00  4.05700797E+00
 -3.00644277E-02  2.34325765E+00  4.05700797E+00 -3.00644277E-02  2.34325765E+00
  4.05700797E+00 -3.00644277E-02  2.34325765E+00  4.05700797E+00 -3.00644277E-02
  2.34325765E+00  4.05700797E+00 -3.00644277E-02 -2.34325765E+00  4.05700797E+00
  3.00644277E-02 -2.34325765E+00  4.05700797E+00  3.00644277E-02 -2.34325765E+00
  4.05700797E+00  3.00644277E-02 -2.34325765E+00  4.05700797E+00  3.00644277E-02
 -2.34325765E+00  4.05700797E+00  3.00644277E-02 -4.68272382E+00  0.00000000E+00
 -3.03511181E-02 -4.68272382E+00  0.00000000E+00 -3.03511181E-02 -4.68272382E+00
  0.00000000E+00 -3.03511181E-02 -4.68272382E+00  0.00000000E+00 -3.03511181E-02
 -4.68272382E+00  0.00000000E+00 -3.03511181E-02 -2.34325765E+00 -4.05700797E+00
  3.00644277E-02 -2.34325765E+00 -4.05700797E+00  3.00644277E-02 -2.34325765E+00
 -4.05700797E+00  3.00644277E-02 -2.34325765E+00 -4.05700797E+00  3.00644277E-02
 -2.34325765E+00 -4.05700797E+00  3.00644277E-02  2.34325765E+00 -4.05700797E+00
 -3.00644277E-02  2.34325765E+00 -4.05700797E+00 -3.00644277E-02  2.34325765E+00
 -4.05700797E+00 -3.00644277E-02  2.34325765E+00 -4.05700797E+00 -3.00644277E-02
  2.34325765E+00 -4.05700797E+00 -3.00644277E-02
Num ILSW                                   I              100
ILSW                                       I   N=         100
           0           0           0           0           2           0
           0           0           0           0           0          -1
           5           0           0           0           0           0
           0           0           0           0           0           0
           1           1           0           0           0           0
           0           0      100000           0          -1           0
           0           0           0           0           0           0
           0           0           0           1           0           0
           0 -2000000000           1           0           0           0
           0           0           4          52           0           0
           0           0           0           0           0           0
           0           0           0          12           0           1
           0           0           0           0           0           0
           0           0           0           0           0           0
           0           0           0           0           0           0
           0           0           0           0           0           0
           0           0           0           0
Num RLSW                                   I               52
RLSW                                       R   N=          52
  1.00000000E+00  1.00000000E+00  1.00000000E+00  1.00000000E+00  1.00000000E+00
  0.00000000E+00  0.00000000E+00  1.00000000E+00  0.00000000E+00  0.00000000E+00
  0.00000000E+00  0.00000000E+00  1.00000000E+00  0.00000000E+00  0.00000000E+00
  0.00000000E+00  0.00000000E+00  1.00000000E+00  0.00000000E+00  0.00000000E+00
  0.00000000E+00  0.00000000E+00  1.00000000E+00  0.00000000E+00  0.00000000E+00
  0.00000000E+00  0.00000000E+00  1.00000000E+00  0.00000000E+00  0.00000000E+00
  0.00000000E+00  0.00000000E+00  1.00000000E+00  0.00000000E+00  0.00000000E+00
  0.00000000E+00  0.00000000E+00  0.00000000E+00  1.00000000E+00  1.00000000E+00
  0.00000000E+00  1.00000000E+00  0.00000000E+00  0.00000000E+00  0.00000000E+00
  0.00000000E+00  0.00000000E+00  0.00000000E+00  0.00000000E+00  0.00000000E+00
  0.00000000E+00  0.00000000E+00
MxBond                                     I                3
NBond                                      I   N=          12
           3           3           3           3           3           3
           1           1           1           1           1           1
IBond                                      I   N=          36
           2           6           7           1           3           8
           2           4           9           3           5          10
           4           6          11           1           5          12
           1           0           0           2           0           0
           3           0           0           4           0           0
           5           0           0           6           0           0
RBond                                      R   N=          36
  1.50000000E+00  1.50000000E+00  1.00000000E+00  1.50000000E+00  1.50000000E+00
  1.00000000E+00  1.50000000E+00  1.50000000E+00  1.00000000E+00  1.50000000E+00
  1.50000000E+00  1.00000000E+00  1.50000000E+00  1.50000000E+00  1.00000000E+00
  1.50000000E+00  1.50000000E+00  1.00000000E+00  1.00000000E+00  0.00000000E+00
  0.00000000E+00  1.00000000E+00  0.00000000E+00  0.00000000E+00  1.00000000E+00
  0.00000000E+00  0.00000000E+00  1.00000000E+00  0.00000000E+00  0.00000000E+00
  1.00000000E+00  0.00000000E+00  0.00000000E+00  1.00000000E+00  0.00000000E+00
  0.00000000E+00
Virial Ratio                               R      2.001294923154544E+00
SCF Energy                                 R     -2.307547445180221E+02
MP2 Energy                                 R     -2.315839972380375E+02
Total Energy                               R     -2.315839972380375E+02
Post-SCF wavefunction norm                 R      1.143769967837784E+00
RMS Density                                R      8.542404389592572E-09
Job Status                                 I                1
Nuclear derivative order                   I                0
External E-field                           R   N=          35
  0.00000000E+00  0.00000000E+00  0.00000000E+00  0.00000000E+00  0.00000000E+00
  0.00000000E+00  0.00000000E+00  0.00000000E+00  0.00000000E+00  0.00000000E+00
  0.00000000E+00  0.00000000E+00  0.00000000E+00  0.00000000E+00  0.00000000E+00
  0.00000000E+00  0.00000000E+00  0.00000000E+00  0.00000000E+00  0.00000000E+00
  0.00000000E+00  0.00000000E+00  0.00000000E+00  0.00000000E+00  0.00000000E+00
  0.00000000E+00  0.00000000E+00  0.00000000E+00  0.00000000E+00  0.00000000E+00
  0.00000000E+00  0.00000000E+00  0.00000000E+00  0.00000000E+00  0.00000000E+00
IOpCl                                      I                0
IROHF                                      I                0
Alpha Orbital Energies                     R   N=         174
 -1.12391990E+01 -1.12386521E+01 -1.12386065E+01 -1.12374239E+01 -1.12373763E+01
 -1.12367975E+01 -1.15222674E+00 -1.01640815E+00 -1.01627706E+00 -8.25196071E-01
 -8.25018516E-01 -7.10602600E-01 -6.44474075E-01 -6.20376813E-01 -5.89580728E-01
 -5.89233773E-01 -5.01993821E-01 -4.96216710E-01 -4.95843002E-01 -3.36935317E-01
 -3.36865124E-01  4.21093229E-02  4.89740715E-02  4.89839417E-02  6.63092477E-02
  6.63219521E-02  9.35577052E-02  1.08850458E-01  1.08967172E-01  1.19442368E-01
  1.52373382E-01  1.52392545E-01  1.54859649E-01  1.62849866E-01  1.81220466E-01
  1.81256671E-01  1.83538381E-01  1.83540723E-01  1.92228241E-01  2.12318104E-01
  2.12342830E-01  2.12910445E-01  2.15787771E-01  2.15977987E-01  2.16041735E-01
  2.28381934E-01  2.28419958E-01  2.50128083E-01  2.50131487E-01  2.73161906E-01
  2.78246345E-01  2.88989954E-01  2.89019584E-01  3.34071066E-01  3.66001576E-01
  4.07459348E-01  4.08200174E-01  4.08264819E-01  4.29428095E-01  4.29429448E-01
  4.97874829E-01  4.97893535E-01  5.08753920E-01  5.08919489E-01  6.04150105E-01
  6.09653348E-01  6.87686378E-01  7.24182190E-01  7.24208049E-01  7.25196834E-01
  7.39394473E-01  7.49489366E-01  7.49600519E-01  7.58482215E-01  7.58506931E-01
  7.99239820E-01  8.19054512E-01  8.19098296E-01  8.28207524E-01  8.85298530E-01
  9.39244970E-01  9.39446561E-01  9.50397274E-01  9.50691132E-01  9.75262236E-01
  1.01494594E+00  1.01497548E+00  1.05641967E+00  1.05642458E+00  1.08898437E+00
  1.11744129E+00  1.12035565E+00  1.12045497E+00  1.17086261E+00  1.21401054E+00
  1.21427476E+00  1.25972687E+00  1.32723570E+00  1.32761887E+00  1.39105044E+00
  1.39131517E+00  1.52819340E+00  1.55533981E+00  1.71129317E+00  1.78498464E+00
  1.78577470E+00  1.79628036E+00  1.82538271E+00  1.84370758E+00  1.84384054E+00
  1.90658683E+00  1.90698383E+00  1.93249606E+00  1.93306327E+00  1.99743145E+00
  2.05361370E+00  2.05383554E+00  2.10272530E+00  2.10322419E+00  2.12829866E+00
  2.21553575E+00  2.23100452E+00  2.23177409E+00  2.25040442E+00  2.25085772E+00
  2.29371881E+00  2.34923835E+00  2.34925658E+00  2.37572647E+00  2.37598168E+00
  2.63315745E+00  2.65587037E+00  2.74271144E+00  2.74290268E+00  2.74737562E+00
  2.81440123E+00  2.81480264E+00  2.87532661E+00  2.95823818E+00  2.95896454E+00
  2.98966316E+00  3.02286281E+00  3.02297516E+00  3.02634043E+00  3.04508325E+00
  3.04513387E+00  3.07749310E+00  3.19096410E+00  3.19116127E+00  3.24928473E+00
  3.29453161E+00  3.29465067E+00  3.32590712E+00  3.32631277E+00  3.47970314E+00
  3.54626147E+00  3.77370288E+00  3.77378476E+00  3.90372423E+00  3.90375185E+00
  3.91945349E+00  4.04981636E+00  4.40548911E+00  4.40580578E+00  4.47987897E+00
  4.57534566E+00  4.57581075E+00  5.25117000E+00  2.47474534E+01  2.51332909E+01
  2.51334824E+01  2.52560812E+01  2.52564583E+01  2.53442377E+01
Alpha MO coefficients                      R   N=       30276
  2.24019444E-01  1.85482661E-01 -3.29775966E-05 -9.73993722E-15 -9.87861330E-06
  1.98509053E-03 -1.83509518E-04 -1.42030774E-14 -1.03242425E-05 -3.88017401E-04
  1.10422113E-05  5.93162430E-14  4.59361792E-05 -1.68808043E-04 -1.67169586E-04
 -1.52231418E-12 -1.96655313E-04 -1.11176689E-04  1.47253469E-06  6.66137523E-17
 -6.45012845E-05  9.61860102E-15  2.32797956E-01  1.92754233E-01 -1.71185286E-05
 -2.40128265E-05  1.01960964E-05  2.04676326E-03 -9.47407719E-05 -1.60053894E-04
  1.04881170E-05 -3.97604001E-04  8.43180441E-06  1.35280840E-05 -4.58977040E-05
 -6.20434852E-05 -1.04518938E-04 -1.84017481E-04  1.97074777E-04 -1.18900021E-04
 -7.38158010E-07 -1.43153247E-06  3.30787625E-05 -5.57269390E-05  2.32797956E-01
  1.92754233E-01  1.71185286E-05 -2.40128265E-05 -1.01960964E-05  2.04676326E-03
  9.47407719E-05 -1.60053894E-04 -1.04881170E-05 -3.97604001E-04 -8.43180485E-06
  1.35280849E-05  4.58977040E-05 -6.20435581E-05  1.04518929E-04 -1.84017466E-04
 -1.97074776E-04 -1.18900021E-04 -7.38158000E-07  1.43153245E-06  3.30787624E-05
  5.57269390E-05  2.24019444E-01  1.85482661E-01  3.29775966E-05 -7.41530505E-15
  9.87861331E-06  1.98509053E-03  1.83509518E-04 -1.16591028E-14  1.03242424E-05
 -3.88017400E-04 -1.10422106E-05  9.63829939E-14 -4.59361791E-05 -1.68807974E-04
  1.67169602E-04 -1.89548863E-12  1.96655313E-04 -1.11176689E-04  1.47253471E-06
  3.36382889E-16 -6.45012845E-05 -8.28429399E-15  2.32797956E-01  1.92754233E-01
  1.71185286E-05  2.40128265E-05 -1.01960964E-05  2.04676327E-03  9.47407719E-05
  1.60053894E-04 -1.04881170E-05 -3.97604002E-04 -8.43180487E-06 -1.35280846E-05
  4.58977040E-05 -6.20435567E-05  1.04518933E-04  1.84017467E-04 -1.97074776E-04
 -1.18900021E-04 -7.38158000E-07 -1.43153245E-06  3.30787625E-05 -5.57269390E-05
  2.32797956E-01  1.92754233E-01 -1.71185286E-05  2.40128265E-05  1.01960964E-05
  2.04676327E-03 -9.47407719E-05  1.60053894E-04  1.04881170E-05 -3.97604001E-04
  8.43180449E-06 -1.35280841E-05 -4.58977040E-05 -6.20434973E-05 -1.04518938E-04
  1.84017479E-04  1.97074777E-04 -1.18900021E-04 -7.38158010E-07  1.43153247E-06
  3.30787625E-05  5.57269390E-05  1.72783157E-04 -1.06141844E-05  2.34562306E-04
  8.15759770E-05 -3.21056823E-05 -4.07765473E-15 -2.82495684E-06  1.79206958E-04
 -1.46131036E-05  2.41985442E-04  9.84283055E-05 -1.61308948E-05 -2.74183045E-05
  2.84990568E-06  1.79206958E-04 -1.46131039E-05  2.41985442E-04  9.84283019E-05
  1.61308948E-05 -2.74183045E-05 -2.84990571E-06  1.72783157E-04 -1.06141842E-05
  2.34562306E-04  8.15759798E-05  3.21056823E-05 -3.58770443E-15  2.82495681E-06
  1.79206958E-04 -1.46131039E-05  2.41985442E-04  9.84283029E-05  1.61308948E-05
  2.74183045E-05 -2.84990571E-06  1.79206958E-04 -1.46131037E-05  2.41985442E-04
  9.84283052E-05 -1.61308948E-05  2.74183045E-05  2.84990568E-06 -9.33709171E-11
 -7.73177403E-11  1.21811787E-14  1.85861566E-04  6.96325015E-15 -7.91930754E-13
  1.56322169E-14  1.47980484E-04 -6.91109887E-15  2.17082886E-13  2.01086428E-14
 -2.17528259E-04  1.01852391E-14 -1.81046913E-12  1.99009004E-12  1.11784596E-03
 -4.28309845E-14  4.69755077E-14 -2.18051208E-15  2.90443228E-06  2.41566083E-14
 -1.06405449E-04  2.81618088E-01  2.33211458E-01 -8.25741281E-05  4.23026806E-05
  1.39324050E-05  2.30528026E-03 -1.24794872E-04 -6.81584698E-05  1.68586986E-06
 -2.98141143E-04  8.66599982E-05 -6.71379683E-05  5.07264931E-06 -1.21873033E-03
 -9.93271660E-04 -6.02701847E-04 -4.38865448E-05 -1.68297664E-04 -9.16062182E-08
 -3.07709542E-06  8.34911204E-05 -3.82875251E-05  2.81618088E-01  2.33211459E-01
  8.25741280E-05  4.23026806E-05 -1.39324050E-05  2.30528026E-03  1.24794871E-04
 -6.81584700E-05 -1.68586988E-06 -2.98141143E-04 -8.66599981E-05 -6.71379681E-05
 -5.07264930E-06 -1.21873036E-03  9.93271657E-04 -6.02701841E-04  4.38865451E-05
 -1.68297665E-04 -9.16062193E-08  3.07709542E-06  8.34911204E-05  3.82875251E-05
  1.40806413E-10  1.16600866E-10  5.78350548E-15  1.85861566E-04  9.39788560E-15
  1.17806918E-12  5.27252364E-14  1.47980484E-04 -5.98092531E-15 -2.62377820E-13
 -4.17638966E-15 -2.17528259E-04  1.19317933E-14  3.03500867E-12  2.12742164E-12
  1.11784597E-03 -3.86961625E-14 -7.79706504E-14  2.63080054E-15 -2.90443228E-06