 Entering Gaussian System, Link 0=g16
 Initial command:
 /sw/cluster/pub/apps//g16/l1.exe "/data/mmaximo/31246/Gau-141800.inp" -scrdir="/data/mmaximo/31246/"
 Entering Link 1 = /sw/cluster/pub/apps//g16/l1.exe PID=    141801.
  
 Copyright (c) 1988,1990,1992,1993,1995,1998,2003,2009,2016,
            Gaussian, Inc.  All Rights Reserved.
  
 This is part of the Gaussian(R) 16 program.  It is based on
 the Gaussian(R) 09 system (copyright 2009, Gaussian, Inc.),
 the Gaussian(R) 03 system (copyright 2003, Gaussian, Inc.),
 the Gaussian(R) 98 system (copyright 1998, Gaussian, Inc.),
 the Gaussian(R) 94 system (copyright 1995, Gaussian, Inc.),
 the Gaussian 92(TM) system (copyright 1992, Gaussian, Inc.),
 the Gaussian 90(TM) system (copyright 1990, Gaussian, Inc.),
 the Gaussian 88(TM) system (copyright 1988, Gaussian, Inc.),
 the Gaussian 86(TM) system (copyright 1986, Carnegie Mellon
 University), and the Gaussian 82(TM) system (copyright 1983,
 Carnegie Mellon University). Gaussian is a federally registered
 trademark of Gaussian, Inc.
  
 This software contains proprietary and confidential information,
 including trade secrets, belonging to Gaussian, Inc.
  
 This software is provided under written license and may be
 used, copied, transmitted, or stored only in accord with that
 written license.
  
 The following legend is applicable only to US Government
 contracts under FAR:
  
                    RESTRICTED RIGHTS LEGEND
  
 Use, reproduction and disclosure by the US Government is
 subject to restrictions as set forth in subparagraphs (a)
 and (c) of the Commercial Computer Software - Restricted
 Rights clause in FAR 52.227-19.
  
 Gaussian, Inc.
 340 Quinnipiac St., Bldg. 40, Wallingford CT 06492
  
  
 ---------------------------------------------------------------
 Warning -- This program may not be used in any manner that
 competes with the business of Gaussian, Inc. or will provide
 assistance to any competitor of Gaussian, Inc.  The licensee
 of this program is prohibited from giving any competitor of
 Gaussian, Inc. access to this program.  By using this program,
 the user acknowledges that Gaussian, Inc. is engaged in the
 business of creating and licensing software in the field of
 computational chemistry and represents and warrants to the
 licensee that it is not a competitor of Gaussian, Inc. and that
 it will not use this program in any manner prohibited above.
 ---------------------------------------------------------------
  

 Cite this work as:
 Gaussian 16, Revision A.03,
 M. J. Frisch, G. W. Trucks, H. B. Schlegel, G. E. Scuseria, 
 M. A. Robb, J. R. Cheeseman, G. Scalmani, V. Barone, 
 G. A. Petersson, H. Nakatsuji, X. Li, M. Caricato, A. V. Marenich, 
 J. Bloino, B. G. Janesko, R. Gomperts, B. Mennucci, H. P. Hratchian, 
 J. V. Ortiz, A. F. Izmaylov, J. L. Sonnenberg, D. Williams-Young, 
 F. Ding, F. Lipparini, F. Egidi, J. Goings, B. Peng, A. Petrone, 
 T. Henderson, D. Ranasinghe, V. G. Zakrzewski, J. Gao, N. Rega, 
 G. Zheng, W. Liang, M. Hada, M. Ehara, K. Toyota, R. Fukuda, 
 J. Hasegawa, M. Ishida, T. Nakajima, Y. Honda, O. Kitao, H. Nakai, 
 T. Vreven, K. Throssell, J. A. Montgomery, Jr., J. E. Peralta, 
 F. Ogliaro, M. J. Bearpark, J. J. Heyd, E. N. Brothers, K. N. Kudin, 
 V. N. Staroverov, T. A. Keith, R. Kobayashi, J. Normand, 
 K. Raghavachari, A. P. Rendell, J. C. Burant, S. S. Iyengar, 
 J. Tomasi, M. Cossi, J. M. Millam, M. Klene, C. Adamo, R. Cammi, 
 J. W. Ochterski, R. L. Martin, K. Morokuma, O. Farkas, 
 J. B. Foresman, and D. J. Fox, Gaussian, Inc., Wallingford CT, 2016.
 
 ******************************************
 Gaussian 16:  ES64L-G16RevA.03 25-Dec-2016
                12-Feb-2025 
 ******************************************
 %chk=chair-5.chk
 ------------------------------------
 #P MP2/6-311++G** nosymm Density=MP2
 ------------------------------------
 1/30=1,38=1,172=1/1;
 2/12=2,15=1,17=6,18=5,40=1/2;
 3/5=4,6=6,7=1111,11=9,25=1,30=1,71=1/1,2,3;
 4//1;
 5/5=2,38=5/2;
 8/6=4,10=2/1;
 9/15=1,16=-3/6;
 10/5=1,13=10,31=1/2;
 6/7=2,8=2,9=2,10=2,22=2/1;
 99/5=1,9=1/99;
 Leave Link    1 at Wed Feb 12 16:23:00 2025, MaxMem=           0 cpu:               0.0 elap:               0.0
 (Enter /sw/cluster/pub/apps//g16/l101.exe)
 -------
 Chair-5
 -------
 Symbolic Z-matrix:
 Charge =  0 Multiplicity = 1
 C                     1.39347   0.        0.02027 
 C                     0.69721   1.20803  -0.02027 
 C                    -0.69721   1.20803   0.02027 
 C                    -1.39347   0.       -0.02027 
 C                    -0.69721  -1.20803   0.02027 
 C                     0.69721  -1.20803  -0.02027 
 H                     2.47799   0.        0.01606 
 H                     1.24      2.14688  -0.01591 
 H                    -1.24      2.14688   0.01591 
 H                    -2.47799   0.       -0.01606 
 H                    -1.24     -2.14688   0.01591 
 H                     1.24     -2.14688  -0.01591 
 
 ITRead=  0  0  0  0  0  0  0  0  0  0  0  0
 MicOpt= -1 -1 -1 -1 -1 -1 -1 -1 -1 -1 -1 -1
 NAtoms=     12 NQM=       12 NQMF=       0 NMMI=      0 NMMIF=      0
                NMic=       0 NMicF=      0.
                    Isotopes and Nuclear Properties:
 (Nuclear quadrupole moments (NQMom) in fm**2, nuclear magnetic moments (NMagM)
  in nuclear magnetons)

  Atom         1           2           3           4           5           6           7           8           9          10
 IAtWgt=          12          12          12          12          12          12           1           1           1           1
 AtmWgt=  12.0000000  12.0000000  12.0000000  12.0000000  12.0000000  12.0000000   1.0078250   1.0078250   1.0078250   1.0078250
 NucSpn=           0           0           0           0           0           0           1           1           1           1
 AtZEff=  -0.0000000  -0.0000000  -0.0000000  -0.0000000  -0.0000000  -0.0000000  -0.0000000  -0.0000000  -0.0000000  -0.0000000
 NQMom=    0.0000000   0.0000000   0.0000000   0.0000000   0.0000000   0.0000000   0.0000000   0.0000000   0.0000000   0.0000000
 NMagM=    0.0000000   0.0000000   0.0000000   0.0000000   0.0000000   0.0000000   2.7928460   2.7928460   2.7928460   2.7928460
 AtZNuc=   6.0000000   6.0000000   6.0000000   6.0000000   6.0000000   6.0000000   1.0000000   1.0000000   1.0000000   1.0000000

  Atom        11          12
 IAtWgt=           1           1
 AtmWgt=   1.0078250   1.0078250
 NucSpn=           1           1
 AtZEff=  -0.0000000  -0.0000000
 NQMom=    0.0000000   0.0000000
 NMagM=    2.7928460   2.7928460
 AtZNuc=   1.0000000   1.0000000
 Leave Link  101 at Wed Feb 12 16:23:00 2025, MaxMem=   104857600 cpu:               0.0 elap:               0.0
 (Enter /sw/cluster/pub/apps//g16/l202.exe)
                          Input orientation:                          
 ---------------------------------------------------------------------
 Center     Atomic      Atomic             Coordinates (Angstroms)
 Number     Number       Type             X           Y           Z
 ---------------------------------------------------------------------
      1          6           0        1.393466    0.000000    0.020274
      2          6           0        0.697214    1.208028   -0.020274
      3          6           0       -0.697214    1.208028    0.020274
      4          6           0       -1.393466    0.000000   -0.020274
      5          6           0       -0.697214   -1.208028    0.020274
      6          6           0        0.697214   -1.208028   -0.020274
      7          1           0        2.477991    0.000000    0.016061
      8          1           0        1.239999    2.146876   -0.015909
      9          1           0       -1.239999    2.146876    0.015909
     10          1           0       -2.477991    0.000000   -0.016061
     11          1           0       -1.239999   -2.146876    0.015909
     12          1           0        1.239999   -2.146876   -0.015909
 ---------------------------------------------------------------------
                    Distance matrix (angstroms):
                    1          2          3          4          5
     1  C    0.000000
     2  C    1.394899   0.000000
     3  C    2.414595   1.395017   0.000000
     4  C    2.787226   2.414595   1.394899   0.000000
     5  C    2.414595   2.789874   2.416056   1.394899   0.000000
     6  C    1.394899   2.416056   2.789874   2.414595   1.395017
     7  H    1.084533   2.152166   3.397245   3.871627   3.397245
     8  H    2.152658   1.084468   2.153029   3.397680   3.874207
     9  H    3.397680   2.153029   1.084468   2.152658   3.398532
    10  H    3.871627   3.397245   2.152166   1.084533   2.152166
    11  H    3.397680   3.874207   3.398532   2.152658   1.084468
    12  H    2.152658   3.398532   3.874207   3.397680   2.153029
                    6          7          8          9         10
     6  C    0.000000
     7  H    2.152166   0.000000
     8  H    3.398532   2.478452   0.000000
     9  H    3.874207   4.293311   2.480201   0.000000
    10  H    3.397245   4.956086   4.293311   2.478452   0.000000
    11  H    2.153029   4.293311   4.958599   4.293752   2.478452
    12  H    1.084468   2.478452   4.293752   4.958599   4.293311
                   11         12
    11  H    0.000000
    12  H    2.480201   0.000000
 Symmetry turned off by external request.
 Stoichiometry    C6H6
 Framework group  C2H[SGH(C2H2),X(C4H4)]
 Deg. of freedom     9
 Full point group                 C2H     NOp   4
 Rotational constants (GHZ):           5.7078104           5.7002151           2.8530077
 Leave Link  202 at Wed Feb 12 16:23:00 2025, MaxMem=   104857600 cpu:               0.0 elap:               0.0
 (Enter /sw/cluster/pub/apps//g16/l301.exe)
 Standard basis: 6-311++G(d,p) (5D, 7F)
 Ernie: Thresh=  0.10000D-02 Tol=  0.10000D-05 Strict=F.
   174 basis functions,   270 primitive gaussians,   180 cartesian basis functions
    21 alpha electrons       21 beta electrons
       nuclear repulsion energy       203.4990290632 Hartrees.
 IExCor=    0 DFT=F Ex=HF Corr=None ExCW=0 ScaHFX=  1.000000
 ScaDFX=  1.000000  1.000000  1.000000  1.000000 ScalE2=  1.000000  1.000000
 IRadAn=      5 IRanWt=     -1 IRanGd=            0 ICorTp=0 IEmpDi=  4
 NAtoms=   12 NActive=   12 NUniq=   12 SFac= 1.00D+00 NAtFMM=   60 NAOKFM=F Big=F
 Integral buffers will be    131072 words long.
 Raffenetti 1 integral format.
 Two-electron integral symmetry is turned off.
 Leave Link  301 at Wed Feb 12 16:23:00 2025, MaxMem=   104857600 cpu:               0.0 elap:               0.0
 (Enter /sw/cluster/pub/apps//g16/l302.exe)
 NPDir=0 NMtPBC=     1 NCelOv=     1 NCel=       1 NClECP=     1 NCelD=      1
         NCelK=      1 NCelE2=     1 NClLst=     1 CellRange=     0.0.
 One-electron integrals computed using PRISM.
 NBasis=   174 RedAO= T EigKep=  4.60D-06  NBF=   174
 NBsUse=   174 1.00D-06 EigRej= -1.00D+00 NBFU=   174
 Leave Link  302 at Wed Feb 12 16:23:00 2025, MaxMem=   104857600 cpu:               0.0 elap:               0.0
 (Enter /sw/cluster/pub/apps//g16/l303.exe)
 DipDrv:  MaxL=1.
 Leave Link  303 at Wed Feb 12 16:23:00 2025, MaxMem=   104857600 cpu:               0.0 elap:               0.0
 (Enter /sw/cluster/pub/apps//g16/l401.exe)
 ExpMin= 3.60D-02 ExpMax= 4.56D+03 ExpMxC= 6.82D+02 IAcc=3 IRadAn=         5 AccDes= 0.00D+00
 Harris functional with IExCor=  205 and IRadAn=       5 diagonalized for initial guess.
 HarFok:  IExCor=  205 AccDes= 0.00D+00 IRadAn=         5 IDoV= 1 UseB2=F ITyADJ=14
 ICtDFT=  3500011 ScaDFX=  1.000000  1.000000  1.000000  1.000000
 FoFCou: FMM=F IPFlag=           0 FMFlag=      100000 FMFlg1=           0
         NFxFlg=           0 DoJE=T BraDBF=F KetDBF=T FulRan=T
         wScrn=  0.000000 ICntrl=       500 IOpCl=  0 I1Cent=   200000004 NGrid=           0
         NMat0=    1 NMatS0=      1 NMatT0=    0 NMatD0=    1 NMtDS0=    0 NMtDT0=    0
 Symmetry not used in FoFCou.
 Harris En= -231.143241838832    
 JPrj=0 DoOrth=F DoCkMO=F.
 Leave Link  401 at Wed Feb 12 16:23:01 2025, MaxMem=   104857600 cpu:               0.7 elap:               0.7
 (Enter /sw/cluster/pub/apps//g16/l502.exe)
 Two-electron integral symmetry not used.
 Closed shell SCF:
 Using DIIS extrapolation, IDIIS=  1040.
 NGot=   104857600 LenX=   104790300 LenY=   104757459
 Requested convergence on RMS density matrix=1.00D-08 within 128 cycles.
 Requested convergence on MAX density matrix=1.00D-06.
 Requested convergence on             energy=1.00D-06.
 No special actions if energy rises.
 Fock matrices will be formed incrementally for  20 cycles.

 Cycle   1  Pass 0  IDiag  1:
 FoFJK:  IHMeth= 1 ICntrl=       0 DoSepK=F KAlg= 0 I1Cent=           0 FoldK=F
 IRaf= 990000000 NMat=       1 IRICut=       1 DoRegI=T DoRafI=F ISym2E= 0 IDoP0=0 IntGTp=1.
 FoFCou: FMM=F IPFlag=           0 FMFlag=      100000 FMFlg1=           0
         NFxFlg=           0 DoJE=F BraDBF=F KetDBF=F FulRan=T
         wScrn=  0.000000 ICntrl=         0 IOpCl=  0 I1Cent=           0 NGrid=           0
         NMat0=    1 NMatS0=      1 NMatT0=    0 NMatD0=    1 NMtDS0=    0 NMtDT0=    0
 Symmetry not used in FoFCou.
 E= -230.461610776603    
 DIIS: error= 7.22D-02 at cycle   1 NSaved=   1.
 NSaved= 1 IEnMin= 1 EnMin= -230.461610776603     IErMin= 1 ErrMin= 7.22D-02
 ErrMax= 7.22D-02  0.00D+00 EMaxC= 1.00D-01 BMatC= 5.03D-01 BMatP= 5.03D-01
 IDIUse=3 WtCom= 2.78D-01 WtEn= 7.22D-01
 Coeff-Com:  0.100D+01
 Coeff-En:   0.100D+01
 Coeff:      0.100D+01
 Gap=     0.478 Goal=   None    Shift=    0.000
 GapD=    0.478 DampG=2.000 DampE=0.500 DampFc=1.0000 IDamp=-1.
 RMSDP=8.10D-02 MaxDP=2.20D+00              OVMax= 1.57D-01

 Cycle   2  Pass 0  IDiag  1:
 RMSU=  8.04D-02    CP:  1.63D+00
 E= -230.708358746188     Delta-E=       -0.246747969585 Rises=F Damp=F
 DIIS: error= 3.11D-02 at cycle   2 NSaved=   2.
 NSaved= 2 IEnMin= 2 EnMin= -230.708358746188     IErMin= 2 ErrMin= 3.11D-02
 ErrMax= 3.11D-02  0.00D+00 EMaxC= 1.00D-01 BMatC= 4.74D-02 BMatP= 5.03D-01
 IDIUse=3 WtCom= 6.89D-01 WtEn= 3.11D-01
 Coeff-Com:  0.156D+00 0.844D+00
 Coeff-En:   0.000D+00 0.100D+01
 Coeff:      0.107D+00 0.893D+00
 Gap=     0.418 Goal=   None    Shift=    0.000
 RMSDP=7.57D-02 MaxDP=2.12D+00 DE=-2.47D-01 OVMax= 5.72D-02

 Cycle   3  Pass 0  IDiag  1:
 RMSU=  3.72D-03    CP:  9.63D-01  6.82D-02
 E= -230.749152069692     Delta-E=       -0.040793323504 Rises=F Damp=F
 DIIS: error= 8.17D-03 at cycle   3 NSaved=   3.
 NSaved= 3 IEnMin= 3 EnMin= -230.749152069692     IErMin= 3 ErrMin= 8.17D-03
 ErrMax= 8.17D-03  0.00D+00 EMaxC= 1.00D-01 BMatC= 5.75D-03 BMatP= 4.74D-02
 IDIUse=3 WtCom= 9.18D-01 WtEn= 8.17D-02
 Coeff-Com: -0.196D-01 0.231D+00 0.788D+00
 Coeff-En:   0.000D+00 0.000D+00 0.100D+01
 Coeff:     -0.180D-01 0.213D+00 0.805D+00
 Gap=     0.378 Goal=   None    Shift=    0.000
 RMSDP=9.42D-03 MaxDP=2.51D-01 DE=-4.08D-02 OVMax= 1.57D-02

 Cycle   4  Pass 0  IDiag  1:
 RMSU=  8.66D-04    CP:  1.04D+00  1.84D-01  1.16D+00
 E= -230.754687682812     Delta-E=       -0.005535613120 Rises=F Damp=F
 DIIS: error= 1.40D-03 at cycle   4 NSaved=   4.
 NSaved= 4 IEnMin= 4 EnMin= -230.754687682812     IErMin= 4 ErrMin= 1.40D-03
 ErrMax= 1.40D-03  0.00D+00 EMaxC= 1.00D-01 BMatC= 3.57D-05 BMatP= 5.75D-03
 IDIUse=3 WtCom= 9.86D-01 WtEn= 1.40D-02
 Coeff-Com: -0.184D-02-0.153D-01 0.121D-01 0.101D+01
 Coeff-En:   0.000D+00 0.000D+00 0.000D+00 0.100D+01
 Coeff:     -0.182D-02-0.151D-01 0.119D-01 0.100D+01
 Gap=     0.379 Goal=   None    Shift=    0.000
 RMSDP=2.22D-03 MaxDP=6.10D-02 DE=-5.54D-03 OVMax= 2.12D-03

 Cycle   5  Pass 0  IDiag  1:
 RMSU=  1.20D-04    CP:  1.02D+00  1.56D-01  1.15D+00  8.15D-01
 E= -230.754740780551     Delta-E=       -0.000053097739 Rises=F Damp=F
 DIIS: error= 2.43D-04 at cycle   5 NSaved=   5.
 NSaved= 5 IEnMin= 5 EnMin= -230.754740780551     IErMin= 5 ErrMin= 2.43D-04
 ErrMax= 2.43D-04  0.00D+00 EMaxC= 1.00D-01 BMatC= 1.77D-06 BMatP= 3.57D-05
 IDIUse=3 WtCom= 9.98D-01 WtEn= 2.43D-03
 Coeff-Com:  0.107D-02-0.856D-02-0.387D-01-0.173D+00 0.122D+01
 Coeff-En:   0.000D+00 0.000D+00 0.000D+00 0.000D+00 0.100D+01
 Coeff:      0.107D-02-0.854D-02-0.387D-01-0.172D+00 0.122D+01
 Gap=     0.379 Goal=   None    Shift=    0.000
 RMSDP=4.98D-04 MaxDP=1.40D-02 DE=-5.31D-05 OVMax= 6.66D-04

 Cycle   6  Pass 0  IDiag  1:
 RMSU=  1.27D-05    CP:  1.01D+00  1.50D-01  1.15D+00  7.67D-01  1.42D+00
 E= -230.754744484725     Delta-E=       -0.000003704174 Rises=F Damp=F
 DIIS: error= 2.33D-05 at cycle   6 NSaved=   6.
 NSaved= 6 IEnMin= 6 EnMin= -230.754744484725     IErMin= 6 ErrMin= 2.33D-05
 ErrMax= 2.33D-05  0.00D+00 EMaxC= 1.00D-01 BMatC= 1.34D-08 BMatP= 1.77D-06
 IDIUse=1 WtCom= 1.00D+00 WtEn= 0.00D+00
 Coeff-Com: -0.107D-03 0.119D-02 0.535D-02 0.159D-01-0.191D+00 0.117D+01
 Coeff:     -0.107D-03 0.119D-02 0.535D-02 0.159D-01-0.191D+00 0.117D+01
 Gap=     0.379 Goal=   None    Shift=    0.000
 RMSDP=5.21D-05 MaxDP=1.42D-03 DE=-3.70D-06 OVMax= 6.00D-05

 Cycle   7  Pass 0  IDiag  1:
 RMSU=  3.08D-06    CP:  1.01D+00  1.50D-01  1.15D+00  7.62D-01  1.45D+00
                    CP:  1.09D+00
 E= -230.754744516656     Delta-E=       -0.000000031931 Rises=F Damp=F
 DIIS: error= 2.22D-06 at cycle   7 NSaved=   7.
 NSaved= 7 IEnMin= 7 EnMin= -230.754744516656     IErMin= 7 ErrMin= 2.22D-06
 ErrMax= 2.22D-06  0.00D+00 EMaxC= 1.00D-01 BMatC= 5.50D-10 BMatP= 1.34D-08
 IDIUse=1 WtCom= 1.00D+00 WtEn= 0.00D+00
 Coeff-Com: -0.900D-05 0.365D-04 0.878D-04 0.127D-02-0.361D-03-0.118D+00
 Coeff-Com:  0.112D+01
 Coeff:     -0.900D-05 0.365D-04 0.878D-04 0.127D-02-0.361D-03-0.118D+00
 Coeff:      0.112D+01
 Gap=     0.379 Goal=   None    Shift=    0.000
 RMSDP=1.28D-06 MaxDP=3.27D-05 DE=-3.19D-08 OVMax= 1.23D-05

 Initial convergence to 1.0D-05 achieved.  Increase integral accuracy.
 Cycle   8  Pass 1  IDiag  1:
 E= -230.754744517839     Delta-E=       -0.000000001183 Rises=F Damp=F
 DIIS: error= 1.01D-06 at cycle   1 NSaved=   1.
 NSaved= 1 IEnMin= 1 EnMin= -230.754744517839     IErMin= 1 ErrMin= 1.01D-06
 ErrMax= 1.01D-06  0.00D+00 EMaxC= 1.00D-01 BMatC= 1.02D-10 BMatP= 1.02D-10
 IDIUse=1 WtCom= 1.00D+00 WtEn= 0.00D+00
 Coeff-Com:  0.100D+01
 Coeff:      0.100D+01
 Gap=     0.379 Goal=   None    Shift=    0.000
 RMSDP=1.28D-06 MaxDP=3.27D-05 DE=-1.18D-09 OVMax= 3.94D-06

 Cycle   9  Pass 1  IDiag  1:
 RMSU=  2.42D-07    CP:  1.00D+00
 E= -230.754744517976     Delta-E=       -0.000000000137 Rises=F Damp=F
 DIIS: error= 5.62D-07 at cycle   2 NSaved=   2.
 NSaved= 2 IEnMin= 2 EnMin= -230.754744517976     IErMin= 2 ErrMin= 5.62D-07
 ErrMax= 5.62D-07  0.00D+00 EMaxC= 1.00D-01 BMatC= 2.81D-11 BMatP= 1.02D-10
 IDIUse=1 WtCom= 1.00D+00 WtEn= 0.00D+00
 Coeff-Com:  0.292D+00 0.708D+00
 Coeff:      0.292D+00 0.708D+00
 Gap=     0.379 Goal=   None    Shift=    0.000
 RMSDP=2.65D-07 MaxDP=7.24D-06 DE=-1.37D-10 OVMax= 1.34D-06

 Cycle  10  Pass 1  IDiag  1:
 RMSU=  1.59D-07    CP:  1.00D+00  1.41D+00
 E= -230.754744518012     Delta-E=       -0.000000000036 Rises=F Damp=F
 DIIS: error= 2.61D-07 at cycle   3 NSaved=   3.
 NSaved= 3 IEnMin= 3 EnMin= -230.754744518012     IErMin= 3 ErrMin= 2.61D-07
 ErrMax= 2.61D-07  0.00D+00 EMaxC= 1.00D-01 BMatC= 2.74D-12 BMatP= 2.81D-11
 IDIUse=1 WtCom= 1.00D+00 WtEn= 0.00D+00
 Coeff-Com: -0.284D+00-0.344D+00 0.163D+01
 Coeff:     -0.284D+00-0.344D+00 0.163D+01
 Gap=     0.379 Goal=   None    Shift=    0.000
 RMSDP=4.26D-07 MaxDP=1.17D-05 DE=-3.62D-11 OVMax= 1.65D-06

 Cycle  11  Pass 1  IDiag  1:
 RMSU=  5.68D-08    CP:  1.00D+00  2.22D+00  2.37D+00
 E= -230.754744518023     Delta-E=       -0.000000000011 Rises=F Damp=F
 DIIS: error= 2.19D-08 at cycle   4 NSaved=   4.
 NSaved= 4 IEnMin= 4 EnMin= -230.754744518023     IErMin= 4 ErrMin= 2.19D-08
 ErrMax= 2.19D-08  0.00D+00 EMaxC= 1.00D-01 BMatC= 2.30D-14 BMatP= 2.74D-12
 IDIUse=1 WtCom= 1.00D+00 WtEn= 0.00D+00
 Coeff-Com:  0.131D+00 0.154D+00-0.774D+00 0.149D+01
 Coeff:      0.131D+00 0.154D+00-0.774D+00 0.149D+01
 Gap=     0.379 Goal=   None    Shift=    0.000
 RMSDP=7.14D-08 MaxDP=1.90D-06 DE=-1.07D-11 OVMax= 1.35D-07

 Cycle  12  Pass 1  IDiag  1:
 RMSU=  2.43D-09    CP:  1.00D+00  2.31D+00  2.63D+00  1.33D+00
 E= -230.754744518022     Delta-E=        0.000000000001 Rises=F Damp=F
 DIIS: error= 2.65D-09 at cycle   5 NSaved=   5.
 NSaved= 5 IEnMin= 4 EnMin= -230.754744518023     IErMin= 5 ErrMin= 2.65D-09
 ErrMax= 2.65D-09  0.00D+00 EMaxC= 1.00D-01 BMatC= 5.12D-16 BMatP= 2.30D-14
 IDIUse=1 WtCom= 1.00D+00 WtEn= 0.00D+00
 Coeff-Com:  0.922D-03 0.130D-02-0.402D-02-0.528D-01 0.105D+01
 Coeff:      0.922D-03 0.130D-02-0.402D-02-0.528D-01 0.105D+01
 Gap=     0.379 Goal=   None    Shift=    0.000
 RMSDP=8.54D-09 MaxDP=2.37D-07 DE= 6.82D-13 OVMax= 1.21D-08

 SCF Done:  E(RHF) =  -230.754744518     A.U. after   12 cycles
            NFock= 12  Conv=0.85D-08     -V/T= 2.0013
 KE= 2.304563212915D+02 PE=-9.437932609454D+02 EE= 2.790831660727D+02
 Leave Link  502 at Wed Feb 12 16:23:10 2025, MaxMem=   104857600 cpu:               8.9 elap:               8.9
 (Enter /sw/cluster/pub/apps//g16/l801.exe)
 ExpMin= 3.60D-02 ExpMax= 4.56D+03 ExpMxC= 6.82D+02 IAcc=3 IRadAn=         5 AccDes= 0.00D+00
 HarFok:  IExCor=  205 AccDes= 0.00D+00 IRadAn=         5 IDoV=-2 UseB2=F ITyADJ=14
 ICtDFT= 12500011 ScaDFX=  1.000000  1.000000  1.000000  1.000000
 Largest valence mixing into a core orbital is  1.44D-04
 Largest core mixing into a valence orbital is  3.72D-05
 Range of M.O.s used for correlation:     7   174
 NBasis=   174 NAE=    21 NBE=    21 NFC=     6 NFV=     0
 NROrb=    168 NOA=    15 NOB=    15 NVA=   153 NVB=   153

 **** Warning!!: The largest alpha MO coefficient is  0.11900152D+03

 Leave Link  801 at Wed Feb 12 16:23:10 2025, MaxMem=   104857600 cpu:               0.1 elap:               0.2
 (Enter /sw/cluster/pub/apps//g16/l906.exe)
 Frozen-core derivative calculation, NFC=   6 NFV=   0.
 FulOut=F Deriv=T AODrv=F NAtomX=    12
   MMem=          34  MDisk=          15 MDiskD=          15
  W3Min=      657720 MinDsk=     1009670 NBas6D=         180
 NBas2D=       16542    NTT=       16290    LW2=     2040000
    MDV=   104495827 MDiskM=        7908 NBas2p=       16458
 Fully direct method using O(ONN) memory.
 IMap=   1   2   3   4   5   6   7   8   9  10  11  12  13  14  15  16  17  18  19  20
 IMap=  21
 JobTyp=1 Pass  1:  I=   7 to  21 NPSUse=  1 ParTrn=F ParDer=F DoDerP=T.
 Spin components of T(2) and E(2):
     alpha-alpha T2 =       0.4247635061D-01 E2=     -0.1079440591D+00
     alpha-beta  T2 =       0.2232570381D+00 E2=     -0.6133646017D+00
     beta-beta   T2 =       0.4247635061D-01 E2=     -0.1079440591D+00
 The integrals were generated   1 times.
 ANorm=    0.1143769968D+01
 E2 =    -0.8292527200D+00 EUMP2 =    -0.23158399723804D+03
 Leave Link  906 at Wed Feb 12 16:23:15 2025, MaxMem=   104857600 cpu:               5.1 elap:               5.1
 (Enter /sw/cluster/pub/apps//g16/l1002.exe)
 Minotr:  Closed shell wavefunction.
          Computing MP2/KS-MP2 derivatives.
          Using Z-Vector for PSCF gradient.
          Skipping F1 and S1 gradient terms here.
          Frozen-core window.
          Direct CPHF calculation.
          Differentiating once with respect to electric field.
                with respect to dipole field.
          Electric field/nuclear overlap derivatives assumed to be zero.
          Requested convergence is 1.0D-10 RMS, and 1.0D-09 maximum.
          NewPWx=F KeepS1=T KeepF1=T KeepIn=T MapXYZ=F SortEE=F KeepMc=T.
 Two-electron integral symmetry not used.
          MDV=     104857600 using IRadAn=       5.
          Solving linear equations separately, MaxMat=     384.
          There are     1 degrees of freedom in the 1st order CPHF.  IDoFFX=0 NUNeed=     1.
 FoFJK:  IHMeth= 1 ICntrl=       0 DoSepK=F KAlg= 0 I1Cent=           0 FoldK=F
 IRaf= 990000000 NMat=       1 IRICut=       1 DoRegI=T DoRafI=F ISym2E= 0 IDoP0=0 IntGTp=1.
 FoFCou: FMM=F IPFlag=           0 FMFlag=      100000 FMFlg1=           0
         NFxFlg=           0 DoJE=F BraDBF=F KetDBF=F FulRan=T
         wScrn=  0.000000 ICntrl=         0 IOpCl=  0 I1Cent=           0 NGrid=           0
         NMat0=    1 NMatS0=      1 NMatT0=    0 NMatD0=    1 NMtDS0=    0 NMtDT0=    0
 Symmetry not used in FoFCou.
 LinEq1:  Iter=  0 NonCon=     1 RMS=3.38D-03 Max=6.75D-02 NDo=     1
 AX will form     1 AO Fock derivatives at one time.
 LinEq1:  Iter=  1 NonCon=     1 RMS=8.29D-04 Max=1.50D-02 NDo=     1
 LinEq1:  Iter=  2 NonCon=     1 RMS=2.33D-04 Max=5.37D-03 NDo=     1
 LinEq1:  Iter=  3 NonCon=     1 RMS=4.88D-05 Max=7.96D-04 NDo=     1
 LinEq1:  Iter=  4 NonCon=     1 RMS=7.09D-06 Max=9.67D-05 NDo=     1
 LinEq1:  Iter=  5 NonCon=     1 RMS=6.68D-07 Max=8.48D-06 NDo=     1
 LinEq1:  Iter=  6 NonCon=     1 RMS=7.28D-08 Max=9.42D-07 NDo=     1
 LinEq1:  Iter=  7 NonCon=     1 RMS=2.69D-08 Max=4.67D-07 NDo=     1
 LinEq1:  Iter=  8 NonCon=     1 RMS=3.30D-09 Max=4.42D-08 NDo=     1
 LinEq1:  Iter=  9 NonCon=     1 RMS=2.98D-10 Max=5.11D-09 NDo=     1
 LinEq1:  Iter= 10 NonCon=     0 RMS=3.69D-11 Max=7.26D-10 NDo=     1
 Linear equations converged to 1.000D-10 1.000D-09 after    10 iterations.
 End of Minotr F.D. properties file   721 does not exist.
 End of Minotr F.D. properties file   722 does not exist.
 End of Minotr F.D. properties file   788 does not exist.
 Leave Link 1002 at Wed Feb 12 16:23:25 2025, MaxMem=   104857600 cpu:              10.1 elap:              10.1
 (Enter /sw/cluster/pub/apps//g16/l601.exe)
 Copying SCF densities to generalized density rwf, IOpCl= 0 IROHF=0.

 **********************************************************************

            Population analysis using the MP2 density.

 **********************************************************************

 Alpha  occ. eigenvalues --  -11.23920 -11.23865 -11.23861 -11.23742 -11.23738
 Alpha  occ. eigenvalues --  -11.23680  -1.15223  -1.01641  -1.01628  -0.82520
 Alpha  occ. eigenvalues --   -0.82502  -0.71060  -0.64447  -0.62038  -0.58958
 Alpha  occ. eigenvalues --   -0.58923  -0.50199  -0.49622  -0.49584  -0.33694
 Alpha  occ. eigenvalues --   -0.33687
 Alpha virt. eigenvalues --    0.04211   0.04897   0.04898   0.06631   0.06632
 Alpha virt. eigenvalues --    0.09356   0.10885   0.10897   0.11944   0.15237
 Alpha virt. eigenvalues --    0.15239   0.15486   0.16285   0.18122   0.18126
 Alpha virt. eigenvalues --    0.18354   0.18354   0.19223   0.21232   0.21234
 Alpha virt. eigenvalues --    0.21291   0.21579   0.21598   0.21604   0.22838
 Alpha virt. eigenvalues --    0.22842   0.25013   0.25013   0.27316   0.27825
 Alpha virt. eigenvalues --    0.28899   0.28902   0.33407   0.36600   0.40746
 Alpha virt. eigenvalues --    0.40820   0.40826   0.42943   0.42943   0.49787
 Alpha virt. eigenvalues --    0.49789   0.50875   0.50892   0.60415   0.60965
 Alpha virt. eigenvalues --    0.68769   0.72418   0.72421   0.72520   0.73939
 Alpha virt. eigenvalues --    0.74949   0.74960   0.75848   0.75851   0.79924
 Alpha virt. eigenvalues --    0.81905   0.81910   0.82821   0.88530   0.93924
 Alpha virt. eigenvalues --    0.93945   0.95040   0.95069   0.97526   1.01495
 Alpha virt. eigenvalues --    1.01498   1.05642   1.05642   1.08898   1.11744
 Alpha virt. eigenvalues --    1.12036   1.12045   1.17086   1.21401   1.21427
 Alpha virt. eigenvalues --    1.25973   1.32724   1.32762   1.39105   1.39132
 Alpha virt. eigenvalues --    1.52819   1.55534   1.71129   1.78498   1.78577
 Alpha virt. eigenvalues --    1.79628   1.82538   1.84371   1.84384   1.90659
 Alpha virt. eigenvalues --    1.90698   1.93250   1.93306   1.99743   2.05361
 Alpha virt. eigenvalues --    2.05384   2.10273   2.10322   2.12830   2.21554
 Alpha virt. eigenvalues --    2.23100   2.23177   2.25040   2.25086   2.29372
 Alpha virt. eigenvalues --    2.34924   2.34926   2.37573   2.37598   2.63316
 Alpha virt. eigenvalues --    2.65587   2.74271   2.74290   2.74738   2.81440
 Alpha virt. eigenvalues --    2.81480   2.87533   2.95824   2.95896   2.98966
 Alpha virt. eigenvalues --    3.02286   3.02298   3.02634   3.04508   3.04513
 Alpha virt. eigenvalues --    3.07749   3.19096   3.19116   3.24928   3.29453
 Alpha virt. eigenvalues --    3.29465   3.32591   3.32631   3.47970   3.54626
 Alpha virt. eigenvalues --    3.77370   3.77378   3.90372   3.90375   3.91945
 Alpha virt. eigenvalues --    4.04982   4.40549   4.40581   4.47988   4.57535
 Alpha virt. eigenvalues --    4.57581   5.25117  24.74745  25.13329  25.13348
 Alpha virt. eigenvalues --   25.25608  25.25646  25.34424
          Condensed to atoms (all electrons):
               1          2          3          4          5          6
     1  C   13.481617  -7.050247   6.099965  -5.677751   6.099965  -7.050247
     2  C   -7.050247  13.481461  -7.050252   6.099965  -5.672984   6.096616
     3  C    6.099965  -7.050252  13.481461  -7.050247   6.096616  -5.672984
     4  C   -5.677751   6.099965  -7.050247  13.481617  -7.050247   6.099965
     5  C    6.099965  -5.672984   6.096616  -7.050247  13.481461  -7.050252
     6  C   -7.050247   6.096616  -5.672984   6.099965  -7.050252  13.481461
     7  H    0.893010  -0.482275   0.268476  -0.194165   0.268476  -0.482275
     8  H   -0.482386   0.893165  -0.482541   0.268678  -0.194158   0.268558
     9  H    0.268678  -0.482541   0.893165  -0.482386   0.268558  -0.194158
    10  H   -0.194165   0.268476  -0.482275   0.893010  -0.482275   0.268476
    11  H    0.268678  -0.194158   0.268558  -0.482386   0.893165  -0.482541
    12  H   -0.482386   0.268558  -0.194158   0.268678  -0.482541   0.893165
               7          8          9         10         11         12
     1  C    0.893010  -0.482386   0.268678  -0.194165   0.268678  -0.482386
     2  C   -0.482275   0.893165  -0.482541   0.268476  -0.194158   0.268558
     3  C    0.268476  -0.482541   0.893165  -0.482275   0.268558  -0.194158
     4  C   -0.194165   0.268678  -0.482386   0.893010  -0.482386   0.268678
     5  C    0.268476  -0.194158   0.268558  -0.482275   0.893165  -0.482541
     6  C   -0.482275   0.268558  -0.194158   0.268476  -0.482541   0.893165
     7  H    0.619715  -0.039641   0.008821  -0.004645   0.008821  -0.039641
     8  H   -0.039641   0.619449  -0.039609   0.008821  -0.004656   0.008831
     9  H    0.008821  -0.039609   0.619449  -0.039641   0.008831  -0.004656
    10  H   -0.004645   0.008821  -0.039641   0.619715  -0.039641   0.008821
    11  H    0.008821  -0.004656   0.008831  -0.039641   0.619449  -0.039609
    12  H   -0.039641   0.008831  -0.004656   0.008821  -0.039609   0.619449
 Mulliken charges:
               1
     1  C   -0.174731
     2  C   -0.175783
     3  C   -0.175783
     4  C   -0.174731
     5  C   -0.175783
     6  C   -0.175783
     7  H    0.175323
     8  H    0.175487
     9  H    0.175487
    10  H    0.175323
    11  H    0.175487
    12  H    0.175487
 Sum of Mulliken charges =  -0.00000
 Mulliken charges with hydrogens summed into heavy atoms:
               1
     1  C    0.000592
     2  C   -0.000296
     3  C   -0.000296
     4  C    0.000592
     5  C   -0.000296
     6  C   -0.000296
 Electronic spatial extent (au):  <R**2>=            460.4608
 Charge=             -0.0000 electrons
 Dipole moment (field-independent basis, Debye):
    X=              0.0000    Y=             -0.0000    Z=              0.0000  Tot=              0.0000
 Quadrupole moment (field-independent basis, Debye-Ang):
   XX=            -32.5841   YY=            -32.5677   ZZ=            -40.8395
   XY=             -0.0000   XZ=              0.0005   YZ=              0.0000
 Traceless Quadrupole moment (field-independent basis, Debye-Ang):
   XX=              2.7463   YY=              2.7627   ZZ=             -5.5091
   XY=             -0.0000   XZ=              0.0005   YZ=              0.0000
 Octapole moment (field-independent basis, Debye-Ang**2):
  XXX=             -0.0000  YYY=             -0.0000  ZZZ=              0.0000  XYY=             -0.0000
  XXY=             -0.0000  XXZ=             -0.0000  XZZ=              0.0000  YZZ=             -0.0000
  YYZ=              0.0000  XYZ=             -0.0000
 Hexadecapole moment (field-independent basis, Debye-Ang**3):
 XXXX=           -279.8784 YYYY=           -280.0193 ZZZZ=            -51.5482 XXXY=              0.0000
 XXXZ=              0.3015 YYYX=              0.0000 YYYZ=              0.0000 ZZZX=             -0.0008
 ZZZY=              0.0000 XXYY=            -93.2716 XXZZ=            -66.2753 YYZZ=            -66.3256
 XXYZ=              0.0000 YYXZ=             -0.2995 ZZXY=              0.0000
 N-N= 2.034990290632D+02 E-N=-9.446332541278D+02  KE= 2.314728516859D+02
 No NMR shielding tensors so no spin-rotation constants.
 Leave Link  601 at Wed Feb 12 16:23:25 2025, MaxMem=   104857600 cpu:               0.1 elap:               0.0
 (Enter /sw/cluster/pub/apps//g16/l9999.exe)
 1\1\GINC-N05\SP\RMP2-FC\6-311++G(d,p)\C6H6\UNKNOWN\12-Feb-2025\0\\#P M
 P2/6-311++G** nosymm Density=MP2\\Chair-5\\0,1\C,0,1.39346553,0.,0.020
 27399\C,0,0.69721364,1.20802809,-0.02027399\C,0,-0.69721364,1.20802809
 ,0.02027399\C,0,-1.39346553,0.,-0.02027399\C,0,-0.69721364,-1.20802809
 ,0.02027399\C,0,0.69721364,-1.20802809,-0.02027399\H,0,2.47799073,0.,0
 .01606112\H,0,1.23999855,2.14687616,-0.01590941\H,0,-1.23999855,2.1468
 7616,0.01590941\H,0,-2.47799073,0.,-0.01606112\H,0,-1.23999855,-2.1468
 7616,0.01590941\H,0,1.23999855,-2.14687616,-0.01590941\\Version=ES64L-
 G16RevA.03\HF=-230.7547445\MP2=-231.5839972\RMSD=8.542e-09\Dipole=0.,0
 .,0.\Quadrupole=2.0418292,2.0540243,-4.0958535,0.,0.0003405,0.\PG=C02H
  [SGH(C2H2),X(C4H4)]\\@


 "ANNA, YOU MUSN'T SPEAK OF OXIDIZED MURIATIC ACID
 ANYMORE, FROM NOW ON YOU MUST SAY CHLORINE."
   -- JENS JACOB BERZELIUS, IN 1820, TO HIS COOK, WHO HAD
 COMPLAINED OF THE SMELL OF THE FLASK SHE WAS CLEANING.
 Job cpu time:       0 days  0 hours  0 minutes 25.0 seconds.
 Elapsed time:       0 days  0 hours  0 minutes 25.0 seconds.
 File lengths (MBytes):  RWF=     20 Int=      0 D2E=      0 Chk=      4 Scr=      1
 Normal termination of Gaussian 16 at Wed Feb 12 16:23:25 2025.
