Penta-O                                                                 
SP        RMP2-FC                                                     6-311++G(d,p)       
Number of atoms                            I               10
Info1-9                                    I   N=           9
          27          19           0           0           0         110
           1           2           1
Charge                                     I                0
Multiplicity                               I                1
Number of electrons                        I               42
Number of alpha electrons                  I               21
Number of beta electrons                   I               21
Number of basis functions                  I              160
Number of independent functions            I              160
Number of point charges in /Mol/           I                0
Number of translation vectors              I                0
Atomic numbers                             I   N=          10
           6           6           1           6           1           6
           1           6           1           8
Nuclear charges                            R   N=          10
  6.00000000E+00  6.00000000E+00  1.00000000E+00  6.00000000E+00  1.00000000E+00
  6.00000000E+00  1.00000000E+00  6.00000000E+00  1.00000000E+00  8.00000000E+00
Current cartesian coordinates              R   N=          30
 -2.85711851E-16  5.28677631E-17  1.55534287E+00 -1.97037396E-17  2.27645103E+00
 -1.67248322E-01 -1.86152942E-16  4.20181739E+00  5.06684709E-01  4.36064160E-16
  1.42025391E+00 -2.54508694E+00  7.24933756E-16  2.54392286E+00 -4.25311968E+00
 -1.97635070E-16 -2.27645103E+00 -1.67248322E-01 -5.14574222E-16 -4.20181739E+00
  5.06684709E-01  3.25054670E-16 -1.42025391E+00 -2.54508694E+00  5.26096366E-16
 -2.54392286E+00 -4.25311968E+00 -7.05140202E-16  5.28677631E-17  3.83860447E+00
Force Field                                I                0
Int Atom Types                             I   N=          10
           0           0           0           0           0           0
           0           0           0           0
MM charges                                 R   N=          10
  0.00000000E+00  0.00000000E+00  0.00000000E+00  0.00000000E+00  0.00000000E+00
  0.00000000E+00  0.00000000E+00  0.00000000E+00  0.00000000E+00  0.00000000E+00
Integer atomic weights                     I   N=          10
          12          12           1          12           1          12
           1          12           1          16
Real atomic weights                        R   N=          10
  1.20000000E+01  1.20000000E+01  1.00782504E+00  1.20000000E+01  1.00782504E+00
  1.20000000E+01  1.00782504E+00  1.20000000E+01  1.00782504E+00  1.59949146E+01
Atom fragment info                         I   N=          10
           0           0           0           0           0           0
           0           0           0           0
Atom residue num                           I   N=          10
           0           0           0           0           0           0
           0           0           0           0
Nuclear spins                              I   N=          10
           0           0           1           0           1           0
           1           0           1           0
Nuclear ZEff                               R   N=          10
 -3.60000000E+00 -3.60000000E+00 -1.00000000E+00 -3.60000000E+00 -1.00000000E+00
 -3.60000000E+00 -1.00000000E+00 -3.60000000E+00 -1.00000000E+00 -5.60000000E+00
Nuclear QMom                               R   N=          10
  0.00000000E+00  0.00000000E+00  0.00000000E+00  0.00000000E+00  0.00000000E+00
  0.00000000E+00  0.00000000E+00  0.00000000E+00  0.00000000E+00  0.00000000E+00
Nuclear GFac                               R   N=          10
  0.00000000E+00  0.00000000E+00  2.79284600E+00  0.00000000E+00  2.79284600E+00
  0.00000000E+00  2.79284600E+00  0.00000000E+00  2.79284600E+00  0.00000000E+00
MicOpt                                     I   N=          10
          -1          -1          -1          -1          -1          -1
          -1          -1          -1          -1
Number of contracted shells                I               56
Number of primitive shells                 I              106
Pure/Cartesian d shells                    I                0
Pure/Cartesian f shells                    I                0
Highest angular momentum                   I                2
Largest degree of contraction              I                6
Shell types                                I   N=          56
           0          -1          -1          -1          -1          -2
           0          -1          -1          -1          -1          -2
           0           0           0           0           1           0
          -1          -1          -1          -1          -2           0
           0           0           0           1           0          -1
          -1          -1          -1          -2           0           0
           0           0           1           0          -1          -1
          -1          -1          -2           0           0           0
           0           1           0          -1          -1          -1
          -1          -2
Number of primitives per shell             I   N=          56
           6           3           1           1           1           1
           6           3           1           1           1           1
           3           1           1           1           1           6
           3           1           1           1           1           3
           1           1           1           1           6           3
           1           1           1           1           3           1
           1           1           1           6           3           1
           1           1           1           3           1           1
           1           1           6           3           1           1
           1           1
Shell to atom map                          I   N=          56
           1           1           1           1           1           1
           2           2           2           2           2           2
           3           3           3           3           3           4
           4           4           4           4           4           5
           5           5           5           5           6           6
           6           6           6           6           7           7
           7           7           7           8           8           8
           8           8           8           9           9           9
           9           9          10          10          10          10
          10          10
Primitive exponents                        R   N=         106
  4.56324000E+03  6.82024000E+02  1.54973000E+02  4.44553000E+01  1.30290000E+01
  1.82773000E+00  2.09642000E+01  4.80331000E+00  1.45933000E+00  4.83456000E-01
  1.45585000E-01  4.38000000E-02  6.26000000E-01  4.56324000E+03  6.82024000E+02
  1.54973000E+02  4.44553000E+01  1.30290000E+01  1.82773000E+00  2.09642000E+01
  4.80331000E+00  1.45933000E+00  4.83456000E-01  1.45585000E-01  4.38000000E-02
  6.26000000E-01  3.38650000E+01  5.09479000E+00  1.15879000E+00  3.25840000E-01
  1.02741000E-01  3.60000000E-02  7.50000000E-01  4.56324000E+03  6.82024000E+02
  1.54973000E+02  4.44553000E+01  1.30290000E+01  1.82773000E+00  2.09642000E+01
  4.80331000E+00  1.45933000E+00  4.83456000E-01  1.45585000E-01  4.38000000E-02
  6.26000000E-01  3.38650000E+01  5.09479000E+00  1.15879000E+00  3.25840000E-01
  1.02741000E-01  3.60000000E-02  7.50000000E-01  4.56324000E+03  6.82024000E+02
  1.54973000E+02  4.44553000E+01  1.30290000E+01  1.82773000E+00  2.09642000E+01
  4.80331000E+00  1.45933000E+00  4.83456000E-01  1.45585000E-01  4.38000000E-02
  6.26000000E-01  3.38650000E+01  5.09479000E+00  1.15879000E+00  3.25840000E-01
  1.02741000E-01  3.60000000E-02  7.50000000E-01  4.56324000E+03  6.82024000E+02
  1.54973000E+02  4.44553000E+01  1.30290000E+01  1.82773000E+00  2.09642000E+01
  4.80331000E+00  1.45933000E+00  4.83456000E-01  1.45585000E-01  4.38000000E-02
  6.26000000E-01  3.38650000E+01  5.09479000E+00  1.15879000E+00  3.25840000E-01
  1.02741000E-01  3.60000000E-02  7.50000000E-01  8.58850000E+03  1.29723000E+03
  2.99296000E+02  8.73771000E+01  2.56789000E+01  3.74004000E+00  4.21175000E+01
  9.62837000E+00  2.85332000E+00  9.05661000E-01  2.55611000E-01  8.45000000E-02
  1.29200000E+00
Contraction coefficients                   R   N=         106
  1.96665025E-03  1.52306019E-02  7.61269097E-02  2.60801033E-01  6.16462078E-01
  2.21006028E-01  1.14660081E-01  9.19999648E-01 -3.03068213E-03  1.00000000E+00
  1.00000000E+00  1.00000000E+00  1.00000000E+00  1.96665025E-03  1.52306019E-02
  7.61269097E-02  2.60801033E-01  6.16462078E-01  2.21006028E-01  1.14660081E-01
  9.19999648E-01 -3.03068213E-03  1.00000000E+00  1.00000000E+00  1.00000000E+00
  1.00000000E+00  2.54938145E-02  1.90373109E-01  8.52161486E-01  1.00000000E+00
  1.00000000E+00  1.00000000E+00  1.00000000E+00  1.96665025E-03  1.52306019E-02
  7.61269097E-02  2.60801033E-01  6.16462078E-01  2.21006028E-01  1.14660081E-01
  9.19999648E-01 -3.03068213E-03  1.00000000E+00  1.00000000E+00  1.00000000E+00
  1.00000000E+00  2.54938145E-02  1.90373109E-01  8.52161486E-01  1.00000000E+00
  1.00000000E+00  1.00000000E+00  1.00000000E+00  1.96665025E-03  1.52306019E-02
  7.61269097E-02  2.60801033E-01  6.16462078E-01  2.21006028E-01  1.14660081E-01
  9.19999648E-01 -3.03068213E-03  1.00000000E+00  1.00000000E+00  1.00000000E+00
  1.00000000E+00  2.54938145E-02  1.90373109E-01  8.52161486E-01  1.00000000E+00
  1.00000000E+00  1.00000000E+00  1.00000000E+00  1.96665025E-03  1.52306019E-02
  7.61269097E-02  2.60801033E-01  6.16462078E-01  2.21006028E-01  1.14660081E-01
  9.19999648E-01 -3.03068213E-03  1.00000000E+00  1.00000000E+00  1.00000000E+00
  1.00000000E+00  2.54938145E-02  1.90373109E-01  8.52161486E-01  1.00000000E+00
  1.00000000E+00  1.00000000E+00  1.00000000E+00  1.89515008E-03  1.43859006E-02
  7.07320031E-02  2.40001011E-01  5.94797026E-01  2.80802012E-01  1.13889012E-01
  9.20811101E-01 -3.27447036E-03  1.00000000E+00  1.00000000E+00  1.00000000E+00
  1.00000000E+00
P(S=P) Contraction coefficients            R   N=         106
  0.00000000E+00  0.00000000E+00  0.00000000E+00  0.00000000E+00  0.00000000E+00
  0.00000000E+00  4.02486927E-02  2.37593957E-01  8.15853851E-01  1.00000000E+00
  1.00000000E+00  1.00000000E+00  0.00000000E+00  0.00000000E+00  0.00000000E+00
  0.00000000E+00  0.00000000E+00  0.00000000E+00  0.00000000E+00  4.02486927E-02
  2.37593957E-01  8.15853851E-01  1.00000000E+00  1.00000000E+00  1.00000000E+00
  0.00000000E+00  0.00000000E+00  0.00000000E+00  0.00000000E+00  0.00000000E+00
  0.00000000E+00  0.00000000E+00  0.00000000E+00  0.00000000E+00  0.00000000E+00
  0.00000000E+00  0.00000000E+00  0.00000000E+00  0.00000000E+00  4.02486927E-02
  2.37593957E-01  8.15853851E-01  1.00000000E+00  1.00000000E+00  1.00000000E+00
  0.00000000E+00  0.00000000E+00  0.00000000E+00  0.00000000E+00  0.00000000E+00
  0.00000000E+00  0.00000000E+00  0.00000000E+00  0.00000000E+00  0.00000000E+00
  0.00000000E+00  0.00000000E+00  0.00000000E+00  0.00000000E+00  4.02486927E-02
  2.37593957E-01  8.15853851E-01  1.00000000E+00  1.00000000E+00  1.00000000E+00
  0.00000000E+00  0.00000000E+00  0.00000000E+00  0.00000000E+00  0.00000000E+00
  0.00000000E+00  0.00000000E+00  0.00000000E+00  0.00000000E+00  0.00000000E+00
  0.00000000E+00  0.00000000E+00  0.00000000E+00  0.00000000E+00  4.02486927E-02
  2.37593957E-01  8.15853851E-01  1.00000000E+00  1.00000000E+00  1.00000000E+00
  0.00000000E+00  0.00000000E+00  0.00000000E+00  0.00000000E+00  0.00000000E+00
  0.00000000E+00  0.00000000E+00  0.00000000E+00  0.00000000E+00  0.00000000E+00
  0.00000000E+00  0.00000000E+00  0.00000000E+00  0.00000000E+00  3.65113974E-02
  2.37152983E-01  8.19701941E-01  1.00000000E+00  1.00000000E+00  1.00000000E+00
  0.00000000E+00
Coordinates of each shell                  R   N=         168
  0.00000000E+00  2.12841756E-48  1.55534287E+00  0.00000000E+00  2.12841756E-48
  1.55534287E+00  0.00000000E+00  2.12841756E-48  1.55534287E+00  0.00000000E+00
  2.12841756E-48  1.55534287E+00  0.00000000E+00  2.12841756E-48  1.55534287E+00
  0.00000000E+00  2.12841756E-48  1.55534287E+00  0.00000000E+00  2.27645103E+00
 -1.67248322E-01  0.00000000E+00  2.27645103E+00 -1.67248322E-01  0.00000000E+00
  2.27645103E+00 -1.67248322E-01  0.00000000E+00  2.27645103E+00 -1.67248322E-01
  0.00000000E+00  2.27645103E+00 -1.67248322E-01  0.00000000E+00  2.27645103E+00
 -1.67248322E-01  0.00000000E+00  4.20181739E+00  5.06684709E-01  0.00000000E+00
  4.20181739E+00  5.06684709E-01  0.00000000E+00  4.20181739E+00  5.06684709E-01
  0.00000000E+00  4.20181739E+00  5.06684709E-01  0.00000000E+00  4.20181739E+00
  5.06684709E-01  0.00000000E+00  1.42025391E+00 -2.54508694E+00  0.00000000E+00
  1.42025391E+00 -2.54508694E+00  0.00000000E+00  1.42025391E+00 -2.54508694E+00
  0.00000000E+00  1.42025391E+00 -2.54508694E+00  0.00000000E+00  1.42025391E+00
 -2.54508694E+00  0.00000000E+00  1.42025391E+00 -2.54508694E+00  0.00000000E+00
  2.54392286E+00 -4.25311968E+00  0.00000000E+00  2.54392286E+00 -4.25311968E+00
  0.00000000E+00  2.54392286E+00 -4.25311968E+00  0.00000000E+00  2.54392286E+00
 -4.25311968E+00  0.00000000E+00  2.54392286E+00 -4.25311968E+00 -2.78784846E-16
 -2.27645103E+00 -1.67248322E-01 -2.78784846E-16 -2.27645103E+00 -1.67248322E-01
 -2.78784846E-16 -2.27645103E+00 -1.67248322E-01 -2.78784846E-16 -2.27645103E+00
 -1.67248322E-01 -2.78784846E-16 -2.27645103E+00 -1.67248322E-01 -2.78784846E-16
 -2.27645103E+00 -1.67248322E-01 -5.14574222E-16 -4.20181739E+00  5.06684709E-01
 -5.14574222E-16 -4.20181739E+00  5.06684709E-01 -5.14574222E-16 -4.20181739E+00
  5.06684709E-01 -5.14574222E-16 -4.20181739E+00  5.06684709E-01 -5.14574222E-16
 -4.20181739E+00  5.06684709E-01 -1.73930941E-16 -1.42025391E+00 -2.54508694E+00
 -1.73930941E-16 -1.42025391E+00 -2.54508694E+00 -1.73930941E-16 -1.42025391E+00
 -2.54508694E+00 -1.73930941E-16 -1.42025391E+00 -2.54508694E+00 -1.73930941E-16
 -1.42025391E+00 -2.54508694E+00 -1.73930941E-16 -1.42025391E+00 -2.54508694E+00
 -3.11540699E-16 -2.54392286E+00 -4.25311968E+00 -3.11540699E-16 -2.54392286E+00
 -4.25311968E+00 -3.11540699E-16 -2.54392286E+00 -4.25311968E+00 -3.11540699E-16
 -2.54392286E+00 -4.25311968E+00 -3.11540699E-16 -2.54392286E+00 -4.25311968E+00
  0.00000000E+00  5.25295952E-48  3.83860447E+00  0.00000000E+00  5.25295952E-48
  3.83860447E+00  0.00000000E+00  5.25295952E-48  3.83860447E+00  0.00000000E+00
  5.25295952E-48  3.83860447E+00  0.00000000E+00  5.25295952E-48  3.83860447E+00
  0.00000000E+00  5.25295952E-48  3.83860447E+00
Constraint Structure                       R   N=          30
  0.00000000E+00  2.12841756E-48  1.55534287E+00  0.00000000E+00  2.27645103E+00
 -1.67248322E-01  0.00000000E+00  4.20181739E+00  5.06684709E-01  0.00000000E+00
  1.42025391E+00 -2.54508694E+00  0.00000000E+00  2.54392286E+00 -4.25311968E+00
 -2.78784846E-16 -2.27645103E+00 -1.67248322E-01 -5.14574222E-16 -4.20181739E+00
  5.06684709E-01 -1.73930941E-16 -1.42025391E+00 -2.54508694E+00 -3.11540699E-16
 -2.54392286E+00 -4.25311968E+00  0.00000000E+00  5.25295952E-48  3.83860447E+00
Num ILSW                                   I              100
ILSW                                       I   N=         100
           0           0           0           0           2           0
           0           0           0           0           0          -1
           0           0           0           0           0           0
           0           0           0           0           0           0
           1           0           0           0           0           0
           0           0      100000           0          -1           0
           0           0           0           0           0           0
           0           0           0           1           0           0
           0           0           1           0           0           0
           0           0           4          40           0           0
           0           0           0           0           0           0
           0           0           0           0           0           0
           0           0           0           0           0           0
           0           0           0           0           0           0
           0           0           0           0           0           0
           0           0           0           0           0           0
           0           0           0           0
Num RLSW                                   I               40
RLSW                                       R   N=          40
  1.00000000E+00  1.00000000E+00  1.00000000E+00  1.00000000E+00  1.00000000E+00
  0.00000000E+00  0.00000000E+00  1.00000000E+00  0.00000000E+00  0.00000000E+00
  0.00000000E+00  0.00000000E+00  1.00000000E+00  0.00000000E+00  0.00000000E+00
  0.00000000E+00  0.00000000E+00  1.00000000E+00  0.00000000E+00  0.00000000E+00
  0.00000000E+00  0.00000000E+00  1.00000000E+00  0.00000000E+00  0.00000000E+00
  0.00000000E+00  0.00000000E+00  1.00000000E+00  0.00000000E+00  0.00000000E+00
  0.00000000E+00  0.00000000E+00  0.00000000E+00  0.00000000E+00  0.00000000E+00
  0.00000000E+00  0.00000000E+00  0.00000000E+00  1.00000000E+00  1.00000000E+00
MxBond                                     I                3
NBond                                      I   N=          10
           3           3           1           3           1           3
           1           3           1           1
IBond                                      I   N=          30
           2           6          10           1           3           4
           2           0           0           2           5           8
           4           0           0           1           7           8
           6           0           0           4           6           9
           8           0           0           1           0           0
RBond                                      R   N=          30
  1.00000000E+00  1.00000000E+00  2.00000000E+00  1.00000000E+00  1.00000000E+00
  2.00000000E+00  1.00000000E+00  0.00000000E+00  0.00000000E+00  2.00000000E+00
  1.00000000E+00  1.00000000E+00  1.00000000E+00  0.00000000E+00  0.00000000E+00
  1.00000000E+00  1.00000000E+00  2.00000000E+00  1.00000000E+00  0.00000000E+00
  0.00000000E+00  1.00000000E+00  2.00000000E+00  1.00000000E+00  1.00000000E+00
  0.00000000E+00  0.00000000E+00  2.00000000E+00  0.00000000E+00  0.00000000E+00
Virial Ratio                               R      2.001289853844100E+00
SCF Energy                                 R     -2.665478285795457E+02
MP2 Energy                                 R     -2.674167663463600E+02
Total Energy                               R     -2.674167663463600E+02
Post-SCF wavefunction norm                 R      1.139928757098341E+00
RMS Density                                R      5.272400260740024E-09
External E-field                           R   N=          35
  0.00000000E+00  0.00000000E+00  0.00000000E+00  0.00000000E+00  0.00000000E+00
  0.00000000E+00  0.00000000E+00  0.00000000E+00  0.00000000E+00  0.00000000E+00
  0.00000000E+00  0.00000000E+00  0.00000000E+00  0.00000000E+00  0.00000000E+00
  0.00000000E+00  0.00000000E+00  0.00000000E+00  0.00000000E+00  0.00000000E+00
  0.00000000E+00  0.00000000E+00  0.00000000E+00  0.00000000E+00  0.00000000E+00
  0.00000000E+00  0.00000000E+00  0.00000000E+00  0.00000000E+00  0.00000000E+00
  0.00000000E+00  0.00000000E+00  0.00000000E+00  0.00000000E+00  0.00000000E+00
IOpCl                                      I                0
IROHF                                      I                0
Alpha Orbital Energies                     R   N=         160
 -2.05686595E+01 -1.13462148E+01 -1.12750636E+01 -1.12743848E+01 -1.12518049E+01
 -1.12517692E+01 -1.40449344E+00 -1.17295121E+00 -1.00778993E+00 -9.16035551E-01
 -7.76279129E-01 -7.51683655E-01 -7.09442949E-01 -6.14611768E-01 -6.09977647E-01
 -6.01916130E-01 -5.68099212E-01 -5.48747864E-01 -4.52003961E-01 -4.27445446E-01
 -3.47202637E-01  2.82472928E-02  3.44007418E-02  4.59545289E-02  5.40930847E-02
  6.79377077E-02  1.07203039E-01  1.15919968E-01  1.40761817E-01  1.45106758E-01
  1.47873739E-01  1.50999106E-01  1.51570261E-01  1.54437423E-01  1.71388969E-01
  1.78205945E-01  1.79768189E-01  1.89592242E-01  1.98818413E-01  2.00913621E-01
  2.04238544E-01  2.21031584E-01  2.23265044E-01  2.55708394E-01  2.58402742E-01
  2.67897438E-01  2.69114390E-01  2.80910030E-01  3.30649930E-01  3.70337560E-01
  3.75567412E-01  3.91114925E-01  4.07081253E-01  4.08320975E-01  4.21730173E-01
  4.32155577E-01  4.58263295E-01  4.60656210E-01  5.18080661E-01  5.71787610E-01
  6.12384162E-01  6.44592411E-01  6.76172589E-01  6.85992103E-01  7.02212232E-01
  7.16095181E-01  7.26873733E-01  7.45764169E-01  7.50074697E-01  7.93623049E-01
  8.07112853E-01  8.15941190E-01  8.83107815E-01  8.90105789E-01  9.28653449E-01
  9.70255928E-01  9.79234429E-01  9.80890998E-01  1.01669418E+00  1.04662745E+00
  1.07821273E+00  1.09136067E+00  1.09458954E+00  1.11434329E+00  1.18697025E+00
  1.19848017E+00  1.24396232E+00  1.26686698E+00  1.29421444E+00  1.33996010E+00
  1.37947244E+00  1.42502441E+00  1.47888263E+00  1.50727566E+00  1.52986459E+00
  1.69409605E+00  1.77628401E+00  1.78299073E+00  1.78373728E+00  1.80256522E+00
  1.84719100E+00  1.85418486E+00  1.95836819E+00  1.96934785E+00  1.99072564E+00
  1.99780032E+00  2.04373121E+00  2.08243394E+00  2.10473747E+00  2.14807863E+00
  2.18852229E+00  2.19466909E+00  2.25284003E+00  2.30777389E+00  2.40958690E+00
  2.41854174E+00  2.42537395E+00  2.45218898E+00  2.55393291E+00  2.63090639E+00
  2.67389876E+00  2.79336840E+00  2.85519761E+00  2.93024903E+00  2.96603946E+00
  3.00631612E+00  3.00839512E+00  3.03139380E+00  3.03593168E+00  3.04409900E+00
  3.11426799E+00  3.13063871E+00  3.25018339E+00  3.26386215E+00  3.32916973E+00
  3.37258499E+00  3.41690359E+00  3.45410206E+00  3.56613382E+00  3.61980358E+00
  3.63591750E+00  3.76078519E+00  3.88599958E+00  3.89531255E+00  3.95662269E+00
  4.10633175E+00  4.42639962E+00  4.43445695E+00  4.43565959E+00  4.52487892E+00
  4.99892772E+00  5.60492745E+00  5.75709221E+00  6.30178547E+00  2.47969590E+01
  2.49068973E+01  2.50123083E+01  2.53844029E+01  2.54152257E+01  5.17170321E+01
Alpha MO coefficients                      R   N=       25600
  6.69290274E-06 -7.62647225E-05  0.00000000E+00  0.00000000E+00  8.24923457E-05
  3.32948659E-04  0.00000000E+00  0.00000000E+00  3.64138022E-04 -2.15303861E-04
  0.00000000E+00  0.00000000E+00  9.24102751E-04 -3.81261740E-03  0.00000000E+00
  0.00000000E+00  1.52709575E-04  1.87148902E-04  0.00000000E+00  0.00000000E+00
  5.77521941E-05  0.00000000E+00  7.02898488E-07  2.65371524E-06  0.00000000E+00
  1.17181420E-05 -1.31283082E-05 -2.68764380E-05  0.00000000E+00 -5.57950613E-05
  4.53025404E-05  5.58207935E-04  0.00000000E+00 -4.43166819E-04 -3.22204334E-04
  2.34593684E-03  0.00000000E+00 -8.59138302E-04  1.47850912E-04  2.89002178E-06
  0.00000000E+00 -3.40095853E-05  1.96281044E-06  0.00000000E+00 -5.86565158E-06
  1.37665025E-04  1.66718031E-04  2.99146532E-04  0.00000000E+00 -2.48872563E-05
 -2.99064422E-06  4.62776461E-09 -1.33540035E-06  0.00000000E+00  2.09127781E-06
  1.60073778E-06  2.80990018E-06  0.00000000E+00 -8.66210907E-06  3.05462365E-06
 -4.08723215E-04  0.00000000E+00 -4.80814562E-05 -1.63422099E-04 -8.01451044E-04
  0.00000000E+00  2.99150613E-04 -3.56105292E-04  7.26712711E-06  0.00000000E+00
  1.74819570E-06 -2.03925328E-06  0.00000000E+00 -3.98488528E-06  2.33241839E-05
 -5.34587691E-05 -1.66305409E-04  0.00000000E+00  4.41025607E-06  6.47592899E-06
  7.02898488E-07  2.65371524E-06  0.00000000E+00 -1.17181420E-05 -1.31283082E-05
 -2.68764380E-05  0.00000000E+00  5.57950613E-05  4.53025404E-05  5.58207935E-04
  0.00000000E+00  4.43166819E-04 -3.22204334E-04  2.34593684E-03  0.00000000E+00
  8.59138302E-04  1.47850912E-04  2.89002178E-06  0.00000000E+00  3.40095853E-05
  1.96281044E-06  0.00000000E+00 -5.86565158E-06  1.37665025E-04  1.66718031E-04
  2.99146532E-04  0.00000000E+00  2.48872563E-05 -2.99064422E-06  4.62776461E-09
 -1.33540035E-06  0.00000000E+00 -2.09127781E-06  1.60073778E-06  2.80990018E-06
  0.00000000E+00  8.66210907E-06  3.05462365E-06 -4.08723215E-04  0.00000000E+00
  4.80814562E-05 -1.63422099E-04 -8.01451044E-04  0.00000000E+00 -2.99150613E-04
 -3.56105292E-04  7.26712711E-06  0.00000000E+00 -1.74819570E-06 -2.03925328E-06
  0.00000000E+00 -3.98488528E-06  2.33241839E-05 -5.34587691E-05 -1.66305409E-04
  0.00000000E+00 -4.41025607E-06  6.47592899E-06  5.51489344E-01  4.71689424E-01
  0.00000000E+00  0.00000000E+00 -1.71516261E-03  5.47797127E-03  0.00000000E+00
  0.00000000E+00  6.68185746E-04 -1.36775333E-03  0.00000000E+00  0.00000000E+00
 -8.94185766E-05  8.33927550E-04  0.00000000E+00  0.00000000E+00  1.10700753E-04
  3.82764213E-05  0.00000000E+00  0.00000000E+00 -2.08018588E-04  0.00000000E+00
  5.63477389E-01  4.66619903E-01  0.00000000E+00  0.00000000E+00  2.61499557E-04
  3.75856200E-03  0.00000000E+00  0.00000000E+00  2.82461615E-04 -5.99630938E-04
  0.00000000E+00  0.00000000E+00  1.34158521E-03 -4.84614959E-03  0.00000000E+00
  0.00000000E+00  1.36668717E-03  5.69663499E-04  0.00000000E+00  0.00000000E+00
 -1.54895215E-04  0.00000000E+00  1.91892704E-03  1.53786832E-03  0.00000000E+00
 -9.99607584E-05  5.45342646E-05  2.36176199E-04  0.00000000E+00 -2.31039228E-04
  3.08675447E-04  6.35776916E-04  0.00000000E+00 -5.77780710E-04 -3.69667489E-04
  4.34691967E-03  0.00000000E+00 -1.25999330E-03 -5.20844045E-04  3.95088886E-05
  0.00000000E+00 -2.09480478E-04  3.34475832E-05  0.00000000E+00  1.64398057E-05
  1.87937804E-04  2.80657829E-04  3.74058308E-04  0.00000000E+00 -6.88146235E-05
 -1.17979564E-05 -8.13235571E-06 -1.72565846E-05  0.00000000E+00  5.95059945E-06
 -7.52442105E-06  5.16333573E-05  0.00000000E+00 -1.98445470E-05  8.32954613E-05
 -5.01449117E-04  0.00000000E+00 -6.10347064E-05 -1.89862715E-04 -2.31941929E-03
  0.00000000E+00  3.83075056E-05 -4.87677861E-04  4.11376306E-05  0.00000000E+00
  1.07618930E-05  1.79111972E-05  0.00000000E+00  2.14721660E-06  4.56569899E-05
 -2.44562027E-07 -4.14837535E-05  0.00000000E+00  4.24508152E-06  2.50998774E-05
  1.91892704E-03  1.53786832E-03  0.00000000E+00  9.99607584E-05  5.45342646E-05
  2.36176199E-04  0.00000000E+00  2.31039228E-04  3.08675447E-04  6.35776916E-04
  0.00000000E+00  5.77780710E-04 -3.69667489E-04  4.34691967E-03  0.00000000E+00
  1.25999330E-03 -5.20844045E-04  3.95088886E-05  0.00000000E+00  2.09480478E-04
  3.34475832E-05  0.00000000E+00  1.64398057E-05  1.87937804E-04  2.80657829E-04
  3.74058308E-04  0.00000000E+00  6.88146235E-05 -1.17979564E-05 -8.13235571E-06
 -1.72565846E-05  0.00000000E+00 -5.95059945E-06 -7.52442105E-06  5.16333573E-05
  0.00000000E+00  1.98445470E-05  8.32954613E-05 -5.01449117E-04  0.00000000E+00
  6.10347064E-05 -1.89862715E-04 -2.31941929E-03  0.00000000E+00 -3.83075056E-05
 -4.87677861E-04  4.11376306E-05  0.00000000E+00 -1.07618930E-05  1.79111972E-05
  0.00000000E+00  2.14721660E-06  4.56569899E-05 -2.44562027E-07 -4.14837535E-05
  0.00000000E+00 -4.24508152E-06  2.50998774E-05 -1.96698854E-04 -2.99534585E-04
  0.00000000E+00  0.00000000E+00 -3.15076554E-04  6.70095965E-04  0.00000000E+00
  0.00000000E+00 -5.06358682E-04 -1.05646827E-03  0.00000000E+00  0.00000000E+00
  5.26041102E-04 -3.76522004E-05  0.00000000E+00  0.00000000E+00 -3.41027261E-04
  1.78533380E-04  0.00000000E+00  0.00000000E+00  5.69913776E-05  0.00000000E+00
 -8.26104938E-05 -7.87513252E-05  0.00000000E+00  0.00000000E+00  9.16791936E-06
  4.22174109E-05  0.00000000E+00  0.00000000E+00 -6.92872611E-05  2.60763115E-05
  0.00000000E+00  0.00000000E+00 -3.33764956E-04 -2.07214728E-03  0.00000000E+00
  0.00000000E+00  6.10994770E-04  4.85561020E-06  0.00000000E+00  0.00000000E+00
  7.84259929E-06  0.00000000E+00  1.42863874E-02  1.17957957E-02  0.00000000E+00
 -6.86994119E-05 -1.70033034E-04  2.90018888E-04  0.00000000E+00  7.49515168E-05
  5.04691718E-05 -4.81561384E-04  0.00000000E+00  1.60383058E-04  5.77321373E-05
  7.24230309E-04  0.00000000E+00 -5.45955769E-05 -1.08888964E-04 -1.91882161E-05
  0.00000000E+00  3.54589924E-06  9.30318188E-05  0.00000000E+00  1.65820017E-05
 -3.99091772E-05  2.60854342E-05 -5.34189771E-05  0.00000000E+00  8.31485464E-06
 -2.12659124E-05  3.98053118E-01  3.29615844E-01  0.00000000E+00 -3.36204237E-04
 -2.27429159E-04  3.23147459E-03  0.00000000E+00  1.17143790E-05  4.37514617E-04
 -3.45212981E-04  0.00000000E+00 -3.57912921E-05  4.32365149E-05 -1.89580838E-04
  0.00000000E+00 -5.04219005E-04  5.48377993E-04  2.68626899E-04  0.00000000E+00
  1.16748554E-04 -2.09332125E-04  0.00000000E+00  2.92467652E-04 -4.18170380E-05
  4.27519179E-04  4.30036656E-04  0.00000000E+00 -1.59299616E-05  4.48339571E-05
  1.42863874E-02  1.17957957E-02  0.00000000E+00  6.86994119E-05 -1.70033034E-04
  2.90018888E-04  0.00000000E+00 -7.49515168E-05  5.04691718E-05 -4.81561384E-04
  0.00000000E+00 -1.60383058E-04  5.77321373E-05  7.24230309E-04  0.00000000E+00
  5.45955769E-05 -1.08888964E-04 -1.91882161E-05  0.00000000E+00 -3.54589924E-06
  9.30318188E-05  0.00000000E+00  1.65820017E-05 -3.99091772E-05  2.60854342E-05
 -5.34189771E-05  0.00000000E+00 -8.31485464E-06 -2.12659124E-05  3.98053118E-01
  3.29615844E-01  0.00000000E+00  3.36204237E-04 -2.27429159E-04  3.23147459E-03
  0.00000000E+00 -1.17143790E-05  4.37514617E-04 -3.45212981E-04  0.00000000E+00
  3.57912921E-05  4.32365149E-05 -1.89580838E-04  0.00000000E+00  5.04219005E-04
  5.48377993E-04  2.68626899E-04  0.00000000E+00 -1.16748554E-04 -2.09332125E-04