X=COOCH3                                                                
SP        RMP2-FC                                                     6-311++G(d,p)       
Number of atoms                            I               18
Info1-9                                    I   N=           9
          29          27           0           0           0         110
           1           2           1
Charge                                     I                0
Multiplicity                               I                1
Number of electrons                        I               72
Number of alpha electrons                  I               36
Number of beta electrons                   I               36
Number of basis functions                  I              276
Number of independent functions            I              276
Number of point charges in /Mol/           I                0
Number of translation vectors              I                0
Atomic numbers                             I   N=          18
           6           6           6           6           6           6
           6           1           1           1           1           1
           8           8           6           1           1           1
Nuclear charges                            R   N=          18
  6.00000000E+00  6.00000000E+00  6.00000000E+00  6.00000000E+00  6.00000000E+00
  6.00000000E+00  6.00000000E+00  1.00000000E+00  1.00000000E+00  1.00000000E+00
  1.00000000E+00  1.00000000E+00  8.00000000E+00  8.00000000E+00  6.00000000E+00
  1.00000000E+00  1.00000000E+00  1.00000000E+00
Current cartesian coordinates              R   N=          54
  4.18120804E+00  2.33373430E+00  0.00000000E+00  2.62972210E+00  2.09653776E-01
  0.00000000E+00  7.18522167E-18  4.96039882E-01  0.00000000E+00 -1.05634368E+00
  2.92052827E+00  0.00000000E+00  5.00622468E-01  5.03742783E+00  0.00000000E+00
  3.12101121E+00  4.74658386E+00  0.00000000E+00 -1.75519842E+00 -1.70765102E+00
  0.00000000E+00 -3.09433206E+00  3.10584805E+00  0.00000000E+00 -3.24630383E-01
  6.91206072E+00  0.00000000E+00  4.33471994E+00  6.39743917E+00  0.00000000E+00
  6.21708559E+00  2.10784399E+00  0.00000000E+00  3.43953589E+00 -1.66738851E+00
  0.00000000E+00 -4.03595046E+00 -1.54965291E+00  0.00000000E+00 -5.18727934E-01
 -3.94243359E+00  0.00000000E+00 -2.08615183E+00 -6.16322084E+00  0.00000000E+00
 -7.82992905E-01 -7.75288492E+00  0.00000000E+00 -3.28059669E+00 -6.20239486E+00
  1.67943741E+00 -3.28059669E+00 -6.20239486E+00 -1.67943741E+00
Force Field                                I                0
Int Atom Types                             I   N=          18
           0           0           0           0           0           0
           0           0           0           0           0           0
           0           0           0           0           0           0
MM charges                                 R   N=          18
  0.00000000E+00  0.00000000E+00  0.00000000E+00  0.00000000E+00  0.00000000E+00
  0.00000000E+00  0.00000000E+00  0.00000000E+00  0.00000000E+00  0.00000000E+00
  0.00000000E+00  0.00000000E+00  0.00000000E+00  0.00000000E+00  0.00000000E+00
  0.00000000E+00  0.00000000E+00  0.00000000E+00
Integer atomic weights                     I   N=          18
          12          12          12          12          12          12
          12           1           1           1           1           1
          16          16          12           1           1           1
Real atomic weights                        R   N=          18
  1.20000000E+01  1.20000000E+01  1.20000000E+01  1.20000000E+01  1.20000000E+01
  1.20000000E+01  1.20000000E+01  1.00782504E+00  1.00782504E+00  1.00782504E+00
  1.00782504E+00  1.00782504E+00  1.59949146E+01  1.59949146E+01  1.20000000E+01
  1.00782504E+00  1.00782504E+00  1.00782504E+00
Atom fragment info                         I   N=          18
           0           0           0           0           0           0
           0           0           0           0           0           0
           0           0           0           0           0           0
Atom residue num                           I   N=          18
           0           0           0           0           0           0
           0           0           0           0           0           0
           0           0           0           0           0           0
Nuclear spins                              I   N=          18
           0           0           0           0           0           0
           0           1           1           1           1           1
           0           0           0           1           1           1
Nuclear ZEff                               R   N=          18
 -3.60000000E+00 -3.60000000E+00 -3.60000000E+00 -3.60000000E+00 -3.60000000E+00
 -3.60000000E+00 -3.60000000E+00 -1.00000000E+00 -1.00000000E+00 -1.00000000E+00
 -1.00000000E+00 -1.00000000E+00 -5.60000000E+00 -5.60000000E+00 -3.60000000E+00
 -1.00000000E+00 -1.00000000E+00 -1.00000000E+00
Nuclear QMom                               R   N=          18
  0.00000000E+00  0.00000000E+00  0.00000000E+00  0.00000000E+00  0.00000000E+00
  0.00000000E+00  0.00000000E+00  0.00000000E+00  0.00000000E+00  0.00000000E+00
  0.00000000E+00  0.00000000E+00  0.00000000E+00  0.00000000E+00  0.00000000E+00
  0.00000000E+00  0.00000000E+00  0.00000000E+00
Nuclear GFac                               R   N=          18
  0.00000000E+00  0.00000000E+00  0.00000000E+00  0.00000000E+00  0.00000000E+00
  0.00000000E+00  0.00000000E+00  2.79284600E+00  2.79284600E+00  2.79284600E+00
  2.79284600E+00  2.79284600E+00  0.00000000E+00  0.00000000E+00  0.00000000E+00
  2.79284600E+00  2.79284600E+00  2.79284600E+00
MicOpt                                     I   N=          18
          -1          -1          -1          -1          -1          -1
          -1          -1          -1          -1          -1          -1
          -1          -1          -1          -1          -1          -1
Number of contracted shells                I              100
Number of primitive shells                 I              186
Pure/Cartesian d shells                    I                0
Pure/Cartesian f shells                    I                0
Highest angular momentum                   I                2
Largest degree of contraction              I                6
Shell types                                I   N=         100
           0          -1          -1          -1          -1          -2
           0          -1          -1          -1          -1          -2
           0          -1          -1          -1          -1          -2
           0          -1          -1          -1          -1          -2
           0          -1          -1          -1          -1          -2
           0          -1          -1          -1          -1          -2
           0          -1          -1          -1          -1          -2
           0           0           0           0           1           0
           0           0           0           1           0           0
           0           0           1           0           0           0
           0           1           0           0           0           0
           1           0          -1          -1          -1          -1
          -2           0          -1          -1          -1          -1
          -2           0          -1          -1          -1          -1
          -2           0           0           0           0           1
           0           0           0           0           1           0
           0           0           0           1
Number of primitives per shell             I   N=         100
           6           3           1           1           1           1
           6           3           1           1           1           1
           6           3           1           1           1           1
           6           3           1           1           1           1
           6           3           1           1           1           1
           6           3           1           1           1           1
           6           3           1           1           1           1
           3           1           1           1           1           3
           1           1           1           1           3           1
           1           1           1           3           1           1
           1           1           3           1           1           1
           1           6           3           1           1           1
           1           6           3           1           1           1
           1           6           3           1           1           1
           1           3           1           1           1           1
           3           1           1           1           1           3
           1           1           1           1
Shell to atom map                          I   N=         100
           1           1           1           1           1           1
           2           2           2           2           2           2
           3           3           3           3           3           3
           4           4           4           4           4           4
           5           5           5           5           5           5
           6           6           6           6           6           6
           7           7           7           7           7           7
           8           8           8           8           8           9
           9           9           9           9          10          10
          10          10          10          11          11          11
          11          11          12          12          12          12
          12          13          13          13          13          13
          13          14          14          14          14          14
          14          15          15          15          15          15
          15          16          16          16          16          16
          17          17          17          17          17          18
          18          18          18          18
Primitive exponents                        R   N=         186
  4.56324000E+03  6.82024000E+02  1.54973000E+02  4.44553000E+01  1.30290000E+01
  1.82773000E+00  2.09642000E+01  4.80331000E+00  1.45933000E+00  4.83456000E-01
  1.45585000E-01  4.38000000E-02  6.26000000E-01  4.56324000E+03  6.82024000E+02
  1.54973000E+02  4.44553000E+01  1.30290000E+01  1.82773000E+00  2.09642000E+01
  4.80331000E+00  1.45933000E+00  4.83456000E-01  1.45585000E-01  4.38000000E-02
  6.26000000E-01  4.56324000E+03  6.82024000E+02  1.54973000E+02  4.44553000E+01
  1.30290000E+01  1.82773000E+00  2.09642000E+01  4.80331000E+00  1.45933000E+00
  4.83456000E-01  1.45585000E-01  4.38000000E-02  6.26000000E-01  4.56324000E+03
  6.82024000E+02  1.54973000E+02  4.44553000E+01  1.30290000E+01  1.82773000E+00
  2.09642000E+01  4.80331000E+00  1.45933000E+00  4.83456000E-01  1.45585000E-01
  4.38000000E-02  6.26000000E-01  4.56324000E+03  6.82024000E+02  1.54973000E+02
  4.44553000E+01  1.30290000E+01  1.82773000E+00  2.09642000E+01  4.80331000E+00
  1.45933000E+00  4.83456000E-01  1.45585000E-01  4.38000000E-02  6.26000000E-01
  4.56324000E+03  6.82024000E+02  1.54973000E+02  4.44553000E+01  1.30290000E+01
  1.82773000E+00  2.09642000E+01  4.80331000E+00  1.45933000E+00  4.83456000E-01
  1.45585000E-01  4.38000000E-02  6.26000000E-01  4.56324000E+03  6.82024000E+02
  1.54973000E+02  4.44553000E+01  1.30290000E+01  1.82773000E+00  2.09642000E+01
  4.80331000E+00  1.45933000E+00  4.83456000E-01  1.45585000E-01  4.38000000E-02
  6.26000000E-01  3.38650000E+01  5.09479000E+00  1.15879000E+00  3.25840000E-01
  1.02741000E-01  3.60000000E-02  7.50000000E-01  3.38650000E+01  5.09479000E+00
  1.15879000E+00  3.25840000E-01  1.02741000E-01  3.60000000E-02  7.50000000E-01
  3.38650000E+01  5.09479000E+00  1.15879000E+00  3.25840000E-01  1.02741000E-01
  3.60000000E-02  7.50000000E-01  3.38650000E+01  5.09479000E+00  1.15879000E+00
  3.25840000E-01  1.02741000E-01  3.60000000E-02  7.50000000E-01  3.38650000E+01
  5.09479000E+00  1.15879000E+00  3.25840000E-01  1.02741000E-01  3.60000000E-02
  7.50000000E-01  8.58850000E+03  1.29723000E+03  2.99296000E+02  8.73771000E+01
  2.56789000E+01  3.74004000E+00  4.21175000E+01  9.62837000E+00  2.85332000E+00
  9.05661000E-01  2.55611000E-01  8.45000000E-02  1.29200000E+00  8.58850000E+03
  1.29723000E+03  2.99296000E+02  8.73771000E+01  2.56789000E+01  3.74004000E+00
  4.21175000E+01  9.62837000E+00  2.85332000E+00  9.05661000E-01  2.55611000E-01
  8.45000000E-02  1.29200000E+00  4.56324000E+03  6.82024000E+02  1.54973000E+02
  4.44553000E+01  1.30290000E+01  1.82773000E+00  2.09642000E+01  4.80331000E+00
  1.45933000E+00  4.83456000E-01  1.45585000E-01  4.38000000E-02  6.26000000E-01
  3.38650000E+01  5.09479000E+00  1.15879000E+00  3.25840000E-01  1.02741000E-01
  3.60000000E-02  7.50000000E-01  3.38650000E+01  5.09479000E+00  1.15879000E+00
  3.25840000E-01  1.02741000E-01  3.60000000E-02  7.50000000E-01  3.38650000E+01
  5.09479000E+00  1.15879000E+00  3.25840000E-01  1.02741000E-01  3.60000000E-02
  7.50000000E-01
Contraction coefficients                   R   N=         186
  1.96665025E-03  1.52306019E-02  7.61269097E-02  2.60801033E-01  6.16462078E-01
  2.21006028E-01  1.14660081E-01  9.19999648E-01 -3.03068213E-03  1.00000000E+00
  1.00000000E+00  1.00000000E+00  1.00000000E+00  1.96665025E-03  1.52306019E-02
  7.61269097E-02  2.60801033E-01  6.16462078E-01  2.21006028E-01  1.14660081E-01
  9.19999648E-01 -3.03068213E-03  1.00000000E+00  1.00000000E+00  1.00000000E+00
  1.00000000E+00  1.96665025E-03  1.52306019E-02  7.61269097E-02  2.60801033E-01
  6.16462078E-01  2.21006028E-01  1.14660081E-01  9.19999648E-01 -3.03068213E-03
  1.00000000E+00  1.00000000E+00  1.00000000E+00  1.00000000E+00  1.96665025E-03
  1.52306019E-02  7.61269097E-02  2.60801033E-01  6.16462078E-01  2.21006028E-01
  1.14660081E-01  9.19999648E-01 -3.03068213E-03  1.00000000E+00  1.00000000E+00
  1.00000000E+00  1.00000000E+00  1.96665025E-03  1.52306019E-02  7.61269097E-02
  2.60801033E-01  6.16462078E-01  2.21006028E-01  1.14660081E-01  9.19999648E-01
 -3.03068213E-03  1.00000000E+00  1.00000000E+00  1.00000000E+00  1.00000000E+00
  1.96665025E-03  1.52306019E-02  7.61269097E-02  2.60801033E-01  6.16462078E-01
  2.21006028E-01  1.14660081E-01  9.19999648E-01 -3.03068213E-03  1.00000000E+00
  1.00000000E+00  1.00000000E+00  1.00000000E+00  1.96665025E-03  1.52306019E-02
  7.61269097E-02  2.60801033E-01  6.16462078E-01  2.21006028E-01  1.14660081E-01
  9.19999648E-01 -3.03068213E-03  1.00000000E+00  1.00000000E+00  1.00000000E+00
  1.00000000E+00  2.54938145E-02  1.90373109E-01  8.52161486E-01  1.00000000E+00
  1.00000000E+00  1.00000000E+00  1.00000000E+00  2.54938145E-02  1.90373109E-01
  8.52161486E-01  1.00000000E+00  1.00000000E+00  1.00000000E+00  1.00000000E+00
  2.54938145E-02  1.90373109E-01  8.52161486E-01  1.00000000E+00  1.00000000E+00
  1.00000000E+00  1.00000000E+00  2.54938145E-02  1.90373109E-01  8.52161486E-01
  1.00000000E+00  1.00000000E+00  1.00000000E+00  1.00000000E+00  2.54938145E-02
  1.90373109E-01  8.52161486E-01  1.00000000E+00  1.00000000E+00  1.00000000E+00
  1.00000000E+00  1.89515008E-03  1.43859006E-02  7.07320031E-02  2.40001011E-01
  5.94797026E-01  2.80802012E-01  1.13889012E-01  9.20811101E-01 -3.27447036E-03
  1.00000000E+00  1.00000000E+00  1.00000000E+00  1.00000000E+00  1.89515008E-03
  1.43859006E-02  7.07320031E-02  2.40001011E-01  5.94797026E-01  2.80802012E-01
  1.13889012E-01  9.20811101E-01 -3.27447036E-03  1.00000000E+00  1.00000000E+00
  1.00000000E+00  1.00000000E+00  1.96665025E-03  1.52306019E-02  7.61269097E-02
  2.60801033E-01  6.16462078E-01  2.21006028E-01  1.14660081E-01  9.19999648E-01
 -3.03068213E-03  1.00000000E+00  1.00000000E+00  1.00000000E+00  1.00000000E+00
  2.54938145E-02  1.90373109E-01  8.52161486E-01  1.00000000E+00  1.00000000E+00
  1.00000000E+00  1.00000000E+00  2.54938145E-02  1.90373109E-01  8.52161486E-01
  1.00000000E+00  1.00000000E+00  1.00000000E+00  1.00000000E+00  2.54938145E-02
  1.90373109E-01  8.52161486E-01  1.00000000E+00  1.00000000E+00  1.00000000E+00
  1.00000000E+00
P(S=P) Contraction coefficients            R   N=         186
  0.00000000E+00  0.00000000E+00  0.00000000E+00  0.00000000E+00  0.00000000E+00
  0.00000000E+00  4.02486927E-02  2.37593957E-01  8.15853851E-01  1.00000000E+00
  1.00000000E+00  1.00000000E+00  0.00000000E+00  0.00000000E+00  0.00000000E+00
  0.00000000E+00  0.00000000E+00  0.00000000E+00  0.00000000E+00  4.02486927E-02
  2.37593957E-01  8.15853851E-01  1.00000000E+00  1.00000000E+00  1.00000000E+00
  0.00000000E+00  0.00000000E+00  0.00000000E+00  0.00000000E+00  0.00000000E+00
  0.00000000E+00  0.00000000E+00  4.02486927E-02  2.37593957E-01  8.15853851E-01
  1.00000000E+00  1.00000000E+00  1.00000000E+00  0.00000000E+00  0.00000000E+00
  0.00000000E+00  0.00000000E+00  0.00000000E+00  0.00000000E+00  0.00000000E+00
  4.02486927E-02  2.37593957E-01  8.15853851E-01  1.00000000E+00  1.00000000E+00
  1.00000000E+00  0.00000000E+00  0.00000000E+00  0.00000000E+00  0.00000000E+00
  0.00000000E+00  0.00000000E+00  0.00000000E+00  4.02486927E-02  2.37593957E-01
  8.15853851E-01  1.00000000E+00  1.00000000E+00  1.00000000E+00  0.00000000E+00
  0.00000000E+00  0.00000000E+00  0.00000000E+00  0.00000000E+00  0.00000000E+00
  0.00000000E+00  4.02486927E-02  2.37593957E-01  8.15853851E-01  1.00000000E+00
  1.00000000E+00  1.00000000E+00  0.00000000E+00  0.00000000E+00  0.00000000E+00
  0.00000000E+00  0.00000000E+00  0.00000000E+00  0.00000000E+00  4.02486927E-02
  2.37593957E-01  8.15853851E-01  1.00000000E+00  1.00000000E+00  1.00000000E+00
  0.00000000E+00  0.00000000E+00  0.00000000E+00  0.00000000E+00  0.00000000E+00
  0.00000000E+00  0.00000000E+00  0.00000000E+00  0.00000000E+00  0.00000000E+00
  0.00000000E+00  0.00000000E+00  0.00000000E+00  0.00000000E+00  0.00000000E+00
  0.00000000E+00  0.00000000E+00  0.00000000E+00  0.00000000E+00  0.00000000E+00
  0.00000000E+00  0.00000000E+00  0.00000000E+00  0.00000000E+00  0.00000000E+00
  0.00000000E+00  0.00000000E+00  0.00000000E+00  0.00000000E+00  0.00000000E+00
  0.00000000E+00  0.00000000E+00  0.00000000E+00  0.00000000E+00  0.00000000E+00
  0.00000000E+00  0.00000000E+00  0.00000000E+00  0.00000000E+00  0.00000000E+00
  0.00000000E+00  0.00000000E+00  3.65113974E-02  2.37152983E-01  8.19701941E-01
  1.00000000E+00  1.00000000E+00  1.00000000E+00  0.00000000E+00  0.00000000E+00
  0.00000000E+00  0.00000000E+00  0.00000000E+00  0.00000000E+00  0.00000000E+00
  3.65113974E-02  2.37152983E-01  8.19701941E-01  1.00000000E+00  1.00000000E+00
  1.00000000E+00  0.00000000E+00  0.00000000E+00  0.00000000E+00  0.00000000E+00
  0.00000000E+00  0.00000000E+00  0.00000000E+00  4.02486927E-02  2.37593957E-01
  8.15853851E-01  1.00000000E+00  1.00000000E+00  1.00000000E+00  0.00000000E+00
  0.00000000E+00  0.00000000E+00  0.00000000E+00  0.00000000E+00  0.00000000E+00
  0.00000000E+00  0.00000000E+00  0.00000000E+00  0.00000000E+00  0.00000000E+00
  0.00000000E+00  0.00000000E+00  0.00000000E+00  0.00000000E+00  0.00000000E+00
  0.00000000E+00  0.00000000E+00  0.00000000E+00  0.00000000E+00  0.00000000E+00
  0.00000000E+00
Coordinates of each shell                  R   N=         300
  4.18120726E+00  2.33373588E+00  0.00000000E+00  4.18120726E+00  2.33373588E+00
  0.00000000E+00  4.18120726E+00  2.33373588E+00  0.00000000E+00  4.18120726E+00
  2.33373588E+00  0.00000000E+00  4.18120726E+00  2.33373588E+00  0.00000000E+00
  4.18120726E+00  2.33373588E+00  0.00000000E+00  2.62972222E+00  2.09654706E-01
  0.00000000E+00  2.62972222E+00  2.09654706E-01  0.00000000E+00  2.62972222E+00
  2.09654706E-01  0.00000000E+00  2.62972222E+00  2.09654706E-01  0.00000000E+00
  2.62972222E+00  2.09654706E-01  0.00000000E+00  2.62972222E+00  2.09654706E-01
  0.00000000E+00 -2.62601230E-23  4.96039698E-01  0.00000000E+00 -2.62601230E-23
  4.96039698E-01  0.00000000E+00 -2.62601230E-23  4.96039698E-01  0.00000000E+00
 -2.62601230E-23  4.96039698E-01  0.00000000E+00 -2.62601230E-23  4.96039698E-01
  0.00000000E+00 -2.62601230E-23  4.96039698E-01  0.00000000E+00 -1.05634471E+00
  2.92052764E+00  0.00000000E+00 -1.05634471E+00  2.92052764E+00  0.00000000E+00
 -1.05634471E+00  2.92052764E+00  0.00000000E+00 -1.05634471E+00  2.92052764E+00
  0.00000000E+00 -1.05634471E+00  2.92052764E+00  0.00000000E+00 -1.05634471E+00
  2.92052764E+00  0.00000000E+00  5.00620545E-01  5.03742786E+00  0.00000000E+00
  5.00620545E-01  5.03742786E+00  0.00000000E+00  5.00620545E-01  5.03742786E+00
  0.00000000E+00  5.00620545E-01  5.03742786E+00  0.00000000E+00  5.00620545E-01
  5.03742786E+00  0.00000000E+00  5.00620545E-01  5.03742786E+00  0.00000000E+00
  3.12100941E+00  4.74658500E+00  0.00000000E+00  3.12100941E+00  4.74658500E+00
  0.00000000E+00  3.12100941E+00  4.74658500E+00  0.00000000E+00  3.12100941E+00
  4.74658500E+00  0.00000000E+00  3.12100941E+00  4.74658500E+00  0.00000000E+00
  3.12100941E+00  4.74658500E+00  0.00000000E+00 -1.75519749E+00 -1.70765195E+00
  0.00000000E+00 -1.75519749E+00 -1.70765195E+00  0.00000000E+00 -1.75519749E+00
 -1.70765195E+00  0.00000000E+00 -1.75519749E+00 -1.70765195E+00  0.00000000E+00
 -1.75519749E+00 -1.70765195E+00  0.00000000E+00 -1.75519749E+00 -1.70765195E+00
  0.00000000E+00 -3.09433316E+00  3.10584655E+00  0.00000000E+00 -3.09433316E+00
  3.10584655E+00  0.00000000E+00 -3.09433316E+00  3.10584655E+00  0.00000000E+00
 -3.09433316E+00  3.10584655E+00  0.00000000E+00 -3.09433316E+00  3.10584655E+00
  0.00000000E+00 -3.24633099E-01  6.91206040E+00  0.00000000E+00 -3.24633099E-01
  6.91206040E+00  0.00000000E+00 -3.24633099E-01  6.91206040E+00  0.00000000E+00
 -3.24633099E-01  6.91206040E+00  0.00000000E+00 -3.24633099E-01  6.91206040E+00
  0.00000000E+00  4.33471745E+00  6.39744082E+00  0.00000000E+00  4.33471745E+00
  6.39744082E+00  0.00000000E+00  4.33471745E+00  6.39744082E+00  0.00000000E+00
  4.33471745E+00  6.39744082E+00  0.00000000E+00  4.33471745E+00  6.39744082E+00
  0.00000000E+00  6.21708491E+00  2.10784644E+00  0.00000000E+00  6.21708491E+00
  2.10784644E+00  0.00000000E+00  6.21708491E+00  2.10784644E+00  0.00000000E+00
  6.21708491E+00  2.10784644E+00  0.00000000E+00  6.21708491E+00  2.10784644E+00
  0.00000000E+00  3.43953680E+00 -1.66738724E+00  0.00000000E+00  3.43953680E+00
 -1.66738724E+00  0.00000000E+00  3.43953680E+00 -1.66738724E+00  0.00000000E+00
  3.43953680E+00 -1.66738724E+00  0.00000000E+00  3.43953680E+00 -1.66738724E+00
  0.00000000E+00 -4.03594960E+00 -1.54965480E+00  0.00000000E+00 -4.03594960E+00
 -1.54965480E+00  0.00000000E+00 -4.03594960E+00 -1.54965480E+00  0.00000000E+00
 -4.03594960E+00 -1.54965480E+00  0.00000000E+00 -4.03594960E+00 -1.54965480E+00
  0.00000000E+00 -4.03594960E+00 -1.54965480E+00  0.00000000E+00 -5.18726055E-01
 -3.94243399E+00  0.00000000E+00 -5.18726055E-01 -3.94243399E+00  0.00000000E+00
 -5.18726055E-01 -3.94243399E+00  0.00000000E+00 -5.18726055E-01 -3.94243399E+00
  0.00000000E+00 -5.18726055E-01 -3.94243399E+00  0.00000000E+00 -5.18726055E-01
 -3.94243399E+00  0.00000000E+00 -2.08614901E+00 -6.16322191E+00  0.00000000E+00
 -2.08614901E+00 -6.16322191E+00  0.00000000E+00 -2.08614901E+00 -6.16322191E+00
  0.00000000E+00 -2.08614901E+00 -6.16322191E+00  0.00000000E+00 -2.08614901E+00
 -6.16322191E+00  0.00000000E+00 -2.08614901E+00 -6.16322191E+00  0.00000000E+00
 -7.82989414E-01 -7.75288543E+00  0.00000000E+00 -7.82989414E-01 -7.75288543E+00
  0.00000000E+00 -7.82989414E-01 -7.75288543E+00  0.00000000E+00 -7.82989414E-01
 -7.75288543E+00  0.00000000E+00 -7.82989414E-01 -7.75288543E+00  0.00000000E+00
 -3.28059386E+00 -6.20239644E+00  1.67943741E+00 -3.28059386E+00 -6.20239644E+00
  1.67943741E+00 -3.28059386E+00 -6.20239644E+00  1.67943741E+00 -3.28059386E+00
 -6.20239644E+00  1.67943741E+00 -3.28059386E+00 -6.20239644E+00  1.67943741E+00
 -3.28059386E+00 -6.20239644E+00 -1.67943741E+00 -3.28059386E+00 -6.20239644E+00
 -1.67943741E+00 -3.28059386E+00 -6.20239644E+00 -1.67943741E+00 -3.28059386E+00
 -6.20239644E+00 -1.67943741E+00 -3.28059386E+00 -6.20239644E+00 -1.67943741E+00
Constraint Structure                       R   N=          54
  4.18120726E+00  2.33373588E+00  0.00000000E+00  2.62972222E+00  2.09654706E-01
  0.00000000E+00 -2.62601230E-23  4.96039698E-01  0.00000000E+00 -1.05634471E+00
  2.92052764E+00  0.00000000E+00  5.00620545E-01  5.03742786E+00  0.00000000E+00
  3.12100941E+00  4.74658500E+00  0.00000000E+00 -1.75519749E+00 -1.70765195E+00
  0.00000000E+00 -3.09433316E+00  3.10584655E+00  0.00000000E+00 -3.24633099E-01
  6.91206040E+00  0.00000000E+00  4.33471745E+00  6.39744082E+00  0.00000000E+00
  6.21708491E+00  2.10784644E+00  0.00000000E+00  3.43953680E+00 -1.66738724E+00
  0.00000000E+00 -4.03594960E+00 -1.54965480E+00  0.00000000E+00 -5.18726055E-01
 -3.94243399E+00  0.00000000E+00 -2.08614901E+00 -6.16322191E+00  0.00000000E+00
 -7.82989414E-01 -7.75288543E+00  0.00000000E+00 -3.28059386E+00 -6.20239644E+00
  1.67943741E+00 -3.28059386E+00 -6.20239644E+00 -1.67943741E+00
Num ILSW                                   I              100
ILSW                                       I   N=         100
           0           0           0           0           2           0
           0           0           0           0           0          -1
           0           0           0           0           0           0
           0           0           0           0           0           0
           1           0           0           0           0           0
           0           0      100000           0          -1           0
           0           0           0           0           0           0
           0           0           0           1           0           0
           0           0           1           0           0           0
           0           0           4          40           0           0
           0           0           0           0           0           0
           0           0           0           0           0           0
           0           0           0           0           0           0
           0           0           0           0           0           0
           0           0           0           0           0           0
           0           0           0           0           0           0
           0           0           0           0
Num RLSW                                   I               40
RLSW                                       R   N=          40
  1.00000000E+00  1.00000000E+00  1.00000000E+00  1.00000000E+00  1.00000000E+00
  0.00000000E+00  0.00000000E+00  1.00000000E+00  0.00000000E+00  0.00000000E+00
  0.00000000E+00  0.00000000E+00  1.00000000E+00  0.00000000E+00  0.00000000E+00
  0.00000000E+00  0.00000000E+00  1.00000000E+00  0.00000000E+00  0.00000000E+00
  0.00000000E+00  0.00000000E+00  1.00000000E+00  0.00000000E+00  0.00000000E+00
  0.00000000E+00  0.00000000E+00  1.00000000E+00  0.00000000E+00  0.00000000E+00
  0.00000000E+00  0.00000000E+00  0.00000000E+00  0.00000000E+00  0.00000000E+00
  0.00000000E+00  0.00000000E+00  0.00000000E+00  1.00000000E+00  1.00000000E+00
MxBond                                     I                4
NBond                                      I   N=          18
           3           3           3           3           3           3
           3           1           1           1           1           1
           1           2           4           1           1           1
IBond                                      I   N=          72
           2           6          11           0           1           3
          12           0           2           4           7           0
           3           5           8           0           4           6
           9           0           1           5          10           0
           3          13          14           0           4           0
           0           0           5           0           0           0
           6           0           0           0           1           0
           0           0           2           0           0           0
           7           0           0           0           7          15
           0           0          14          16          17          18
          15           0           0           0          15           0
           0           0          15           0           0           0
RBond                                      R   N=          72
  1.50000000E+00  1.50000000E+00  1.00000000E+00  0.00000000E+00  1.50000000E+00
  1.50000000E+00  1.00000000E+00  0.00000000E+00  1.50000000E+00  1.50000000E+00
  1.00000000E+00  0.00000000E+00  1.50000000E+00  1.50000000E+00  1.00000000E+00
  0.00000000E+00  1.50000000E+00  1.50000000E+00  1.00000000E+00  0.00000000E+00
  1.50000000E+00  1.50000000E+00  1.00000000E+00  0.00000000E+00  1.00000000E+00
  2.00000000E+00  1.50000000E+00  0.00000000E+00  1.00000000E+00  0.00000000E+00
  0.00000000E+00  0.00000000E+00  1.00000000E+00  0.00000000E+00  0.00000000E+00
  0.00000000E+00  1.00000000E+00  0.00000000E+00  0.00000000E+00  0.00000000E+00
  1.00000000E+00  0.00000000E+00  0.00000000E+00  0.00000000E+00  1.00000000E+00
  0.00000000E+00  0.00000000E+00  0.00000000E+00  2.00000000E+00  0.00000000E+00
  0.00000000E+00  0.00000000E+00  1.50000000E+00  1.00000000E+00  0.00000000E+00
  0.00000000E+00  1.00000000E+00  1.00000000E+00  1.00000000E+00  1.00000000E+00
  1.00000000E+00  0.00000000E+00  0.00000000E+00  0.00000000E+00  1.00000000E+00
  0.00000000E+00  0.00000000E+00  0.00000000E+00  1.00000000E+00  0.00000000E+00
  0.00000000E+00  0.00000000E+00