 Entering Gaussian System, Link 0=g09
 Initial command:
 /apps/software//g09/l1.exe /scratch/itamar/2364.cluster.abaxnet/Gau-17917.inp -scrdir=/scratch/itamar/2364.cluster.abaxnet/
 Entering Link 1 = /apps/software//g09/l1.exe PID=     17918.
  
 Copyright (c) 1988,1990,1992,1993,1995,1998,2003,2009, Gaussian, Inc.
                  All Rights Reserved.
  
 This is part of the Gaussian(R) 09 program.  It is based on
 the Gaussian(R) 03 system (copyright 2003, Gaussian, Inc.),
 the Gaussian(R) 98 system (copyright 1998, Gaussian, Inc.),
 the Gaussian(R) 94 system (copyright 1995, Gaussian, Inc.),
 the Gaussian 92(TM) system (copyright 1992, Gaussian, Inc.),
 the Gaussian 90(TM) system (copyright 1990, Gaussian, Inc.),
 the Gaussian 88(TM) system (copyright 1988, Gaussian, Inc.),
 the Gaussian 86(TM) system (copyright 1986, Carnegie Mellon
 University), and the Gaussian 82(TM) system (copyright 1983,
 Carnegie Mellon University). Gaussian is a federally registered
 trademark of Gaussian, Inc.
  
 This software contains proprietary and confidential information,
 including trade secrets, belonging to Gaussian, Inc.
  
 This software is provided under written license and may be
 used, copied, transmitted, or stored only in accord with that
 written license.
  
 The following legend is applicable only to US Government
 contracts under FAR:
  
                    RESTRICTED RIGHTS LEGEND
  
 Use, reproduction and disclosure by the US Government is
 subject to restrictions as set forth in subparagraphs (a)
 and (c) of the Commercial Computer Software - Restricted
 Rights clause in FAR 52.227-19.
  
 Gaussian, Inc.
 340 Quinnipiac St., Bldg. 40, Wallingford CT 06492
  
  
 ---------------------------------------------------------------
 Warning -- This program may not be used in any manner that
 competes with the business of Gaussian, Inc. or will provide
 assistance to any competitor of Gaussian, Inc.  The licensee
 of this program is prohibited from giving any competitor of
 Gaussian, Inc. access to this program.  By using this program,
 the user acknowledges that Gaussian, Inc. is engaged in the
 business of creating and licensing software in the field of
 computational chemistry and represents and warrants to the
 licensee that it is not a competitor of Gaussian, Inc. and that
 it will not use this program in any manner prohibited above.
 ---------------------------------------------------------------
  

 Cite this work as:
 Gaussian 09, Revision A.02,
 M. J. Frisch, G. W. Trucks, H. B. Schlegel, G. E. Scuseria, 
 M. A. Robb, J. R. Cheeseman, G. Scalmani, V. Barone, B. Mennucci, 
 G. A. Petersson, H. Nakatsuji, M. Caricato, X. Li, H. P. Hratchian, 
 A. F. Izmaylov, J. Bloino, G. Zheng, J. L. Sonnenberg, M. Hada, 
 M. Ehara, K. Toyota, R. Fukuda, J. Hasegawa, M. Ishida, T. Nakajima, 
 Y. Honda, O. Kitao, H. Nakai, T. Vreven, J. A. Montgomery, Jr., 
 J. E. Peralta, F. Ogliaro, M. Bearpark, J. J. Heyd, E. Brothers, 
 K. N. Kudin, V. N. Staroverov, R. Kobayashi, J. Normand, 
 K. Raghavachari, A. Rendell, J. C. Burant, S. S. Iyengar, J. Tomasi, 
 M. Cossi, N. Rega, J. M. Millam, M. Klene, J. E. Knox, J. B. Cross, 
 V. Bakken, C. Adamo, J. Jaramillo, R. Gomperts, R. E. Stratmann, 
 O. Yazyev, A. J. Austin, R. Cammi, C. Pomelli, J. W. Ochterski, 
 R. L. Martin, K. Morokuma, V. G. Zakrzewski, G. A. Voth, 
 P. Salvador, J. J. Dannenberg, S. Dapprich, A. D. Daniels, 
 O. Farkas, J. B. Foresman, J. V. Ortiz, J. Cioslowski, 
 and D. J. Fox, Gaussian, Inc., Wallingford CT, 2009.
 
 ******************************************
 Gaussian 09:  EM64L-G09RevA.02 11-Jun-2009
                 2-Dec-2021 
 ******************************************
 %Mem=3800MB
 %NProcShared=6
 Will use up to    6 processors via shared memory.
 %chk=/home/itamar/Aromaticity-test-set/T1-BLA/025/test-b3lyp/bla-025.chk
 -------------------
 #P B3LYP/6-311++G**
 -------------------
 1/38=1/1;
 2/12=2,17=6,18=5,40=1/2;
 3/5=4,6=6,7=1111,11=2,16=1,25=1,30=1,74=-5/1,2,3;
 4//1;
 5/5=2,38=5/2;
 6/7=2,8=2,9=2,10=2,28=1/1;
 99/5=1,9=1/99;
 Leave Link    1 at Thu Dec  2 19:52:59 2021, MaxMem=  498073600 cpu:       0.3
 (Enter /apps/software//g09/l101.exe)
 --------
 Bla-0.25
 --------
 Symbolic Z-matrix:
 Charge =  0 Multiplicity = 1
 6                     0.63483   1.2439    0. 
 6                     1.39466  -0.07217   0. 
 6                     0.75983  -1.17173   0. 
 6                    -0.75983  -1.17173   0. 
 6                    -1.39466  -0.07217   0. 
 6                    -0.63483   1.2439    0. 
 1                     1.17704   2.18304   0. 
 1                     2.47909  -0.07217   0. 
 1                     1.30204  -2.11087   0. 
 1                    -1.30204  -2.11087   0. 
 1                    -2.47909  -0.07217   0. 
 1                    -1.17704   2.18304   0. 
 
 NAtoms=     12 NQM=     12 NQMF=      0 NMic=      0 NMicF=      0 NTot=     12.
                    Isotopes and Nuclear Properties:
 (Nuclear quadrupole moments (NQMom) in fm**2, nuclear magnetic moments (NMagM)
  in nuclear magnetons)

  Atom         1           2           3           4           5           6           7           8           9          10
 IAtWgt=          12          12          12          12          12          12           1           1           1           1
 AtmWgt=  12.0000000  12.0000000  12.0000000  12.0000000  12.0000000  12.0000000   1.0078250   1.0078250   1.0078250   1.0078250
 NucSpn=           0           0           0           0           0           0           1           1           1           1
 AtZEff=   0.0000000   0.0000000   0.0000000   0.0000000   0.0000000   0.0000000   0.0000000   0.0000000   0.0000000   0.0000000
 NQMom=    0.0000000   0.0000000   0.0000000   0.0000000   0.0000000   0.0000000   0.0000000   0.0000000   0.0000000   0.0000000
 NMagM=    0.0000000   0.0000000   0.0000000   0.0000000   0.0000000   0.0000000   2.7928460   2.7928460   2.7928460   2.7928460

  Atom        11          12
 IAtWgt=           1           1
 AtmWgt=   1.0078250   1.0078250
 NucSpn=           1           1
 AtZEff=   0.0000000   0.0000000
 NQMom=    0.0000000   0.0000000
 NMagM=    2.7928460   2.7928460
 Leave Link  101 at Thu Dec  2 19:52:59 2021, MaxMem=  498073600 cpu:       0.3
 (Enter /apps/software//g09/l202.exe)
                          Input orientation:                          
 ---------------------------------------------------------------------
 Center     Atomic      Atomic             Coordinates (Angstroms)
 Number     Number       Type             X           Y           Z
 ---------------------------------------------------------------------
      1          6           0        0.634832    1.243898    0.000000
      2          6           0        1.394663   -0.072169    0.000000
      3          6           0        0.759832   -1.171729    0.000000
      4          6           0       -0.759832   -1.171729    0.000000
      5          6           0       -1.394663   -0.072169    0.000000
      6          6           0       -0.634832    1.243898    0.000000
      7          1           0        1.177044    2.183038    0.000000
      8          1           0        2.479089   -0.072169    0.000000
      9          1           0        1.302044   -2.110869    0.000000
     10          1           0       -1.302044   -2.110869    0.000000
     11          1           0       -2.479089   -0.072169    0.000000
     12          1           0       -1.177044    2.183038    0.000000
 ---------------------------------------------------------------------
                    Distance matrix (angstroms):
                    1          2          3          4          5
     1  C    0.000000
     2  C    1.519663   0.000000
     3  C    2.418859   1.269662   0.000000
     4  C    2.789326   2.418859   1.519664   0.000000
     5  C    2.418860   2.789326   2.418859   1.269662   0.000000
     6  C    1.269664   2.418860   2.789326   2.418859   1.519663
     7  H    1.084425   2.265682   3.380611   3.873751   3.420473
     8  H    2.265682   1.084426   2.040803   3.420474   3.873752
     9  H    3.420473   2.040803   1.084425   2.265682   3.380610
    10  H    3.873751   3.380610   2.265682   1.084425   2.040803
    11  H    3.380612   3.873752   3.420474   2.040803   1.084426
    12  H    2.040803   3.420473   3.873751   3.380611   2.265682
                    6          7          8          9         10
     6  C    0.000000
     7  H    2.040803   0.000000
     8  H    3.380612   2.604089   0.000000
     9  H    3.873751   4.295726   2.354088   0.000000
    10  H    3.420473   4.958177   4.295726   2.604088   0.000000
    11  H    2.265682   4.295727   4.958178   4.295726   2.354088
    12  H    1.084425   2.354088   4.295727   4.958177   4.295726
                   11         12
    11  H    0.000000
    12  H    2.604089   0.000000
 Stoichiometry    C6H6
 Framework group  D3H[SGH(C6H6)]
 Deg. of freedom     4
 Full point group                 D3H     NOp  12
 Largest Abelian subgroup         C2V     NOp   4
 Largest concise Abelian subgroup C2      NOp   2
                         Standard orientation:                         
 ---------------------------------------------------------------------
 Center     Atomic      Atomic             Coordinates (Angstroms)
 Number     Number       Type             X           Y           Z
 ---------------------------------------------------------------------
      1          6           0        0.634832    1.243898    0.000000
      2          6           0        1.394663   -0.072168    0.000000
      3          6           0        0.759831   -1.171730    0.000000
      4          6           0       -0.759831   -1.171730    0.000000
      5          6           0       -1.394663   -0.072168    0.000000
      6          6           0       -0.634832    1.243898    0.000000
      7          1           0        1.177044    2.183038    0.000000
      8          1           0        2.479088   -0.072169    0.000000
      9          1           0        1.302044   -2.110869    0.000000
     10          1           0       -1.302044   -2.110869    0.000000
     11          1           0       -2.479088   -0.072169    0.000000
     12          1           0       -1.177044    2.183038    0.000000
 ---------------------------------------------------------------------
 Rotational constants (GHZ):      5.6906769      5.6906769      2.8453385
 Leave Link  202 at Thu Dec  2 19:52:59 2021, MaxMem=  498073600 cpu:       0.1
 (Enter /apps/software//g09/l301.exe)
 Standard basis: 6-311++G(d,p) (5D, 7F)
 Ernie: Thresh=  0.10000D-02 Tol=  0.10000D-05 Strict=F.
 There are    66 symmetry adapted basis functions of A1  symmetry.
 There are    21 symmetry adapted basis functions of A2  symmetry.
 There are    66 symmetry adapted basis functions of B1  symmetry.
 There are    21 symmetry adapted basis functions of B2  symmetry.
 Integral buffers will be    131072 words long.
 Raffenetti 2 integral format.
 Two-electron integral symmetry is turned on.
   174 basis functions,   270 primitive gaussians,   180 cartesian basis functions
    21 alpha electrons       21 beta electrons
       nuclear repulsion energy       204.1404910873 Hartrees.
 IExCor=  402 DFT=T Ex+Corr=B3LYP ExCW=0 ScaHFX=  0.200000
 ScaDFX=  0.800000  0.720000  1.000000  0.810000 ScalE2=  1.000000  1.000000
 IRadAn=      0 IRanWt=     -1 IRanGd=            0 ICorTp=0
 NAtoms=   12 NActive=   12 NUniq=    2 SFac= 3.00D+00 NAtFMM=   80 NAOKFM=F Big=F
 Leave Link  301 at Thu Dec  2 19:52:59 2021, MaxMem=  498073600 cpu:       0.3
 (Enter /apps/software//g09/l302.exe)
 NPDir=0 NMtPBC=     1 NCelOv=     1 NCel=       1 NClECP=     1 NCelD=      1
         NCelK=      1 NCelE2=     1 NClLst=     1 CellRange=     0.0.
 One-electron integrals computed using PRISM.
 One-electron integral symmetry used in STVInt
 NBasis=   174 RedAO= T  NBF=    66    21    66    21
 NBsUse=   173 1.00D-06 NBFU=    66    21    65    21
 Precomputing XC quadrature grid using
 IXCGrd= 2 IRadAn=           0 IRanWt=          -1 IRanGd=           0 AccXCQ= 1.00D-10.
 NRdTot=     774 NPtTot=       98160 NUsed=      103747 NTot=      103779
 NSgBfM=   180   180   180   180   180 NAtAll=    12    12.
 Leave Link  302 at Thu Dec  2 19:53:00 2021, MaxMem=  498073600 cpu:       1.7
 (Enter /apps/software//g09/l303.exe)
 DipDrv:  MaxL=1.
 Leave Link  303 at Thu Dec  2 19:53:00 2021, MaxMem=  498073600 cpu:       0.2
 (Enter /apps/software//g09/l401.exe)
 Harris functional with IExCor=  402 diagonalized for initial guess.
 ExpMin= 3.60D-02 ExpMax= 4.56D+03 ExpMxC= 6.82D+02 IAcc=3 IRadAn=         0 AccDes= 0.00D+00
 HarFok:  IExCor=  402 AccDes= 0.00D+00 IRadAn=         0 IDoV= 1
 ScaDFX=  1.000000  1.000000  1.000000  1.000000
 FoFCou: FMM=F IPFlag=           0 FMFlag=      100000 FMFlg1=           0
         NFxFlg=           0 DoJE=T BraDBF=F KetDBF=T FulRan=T
         Omega=  0.000000  0.000000  1.000000  0.000000  0.000000 ICntrl=     500 IOpCl=  0
         NMat0=    1 NMatS0=    1 NMatT0=    0 NMatD0=    1 NMtDS0=    0 NMtDT0=    0
         I1Cent=           4 NGrid=           0.
 Petite list used in FoFCou.
 Harris En= -232.346935433079    
 Initial guess orbital symmetries:
       Occupied  (A1') (E') (E') (E') (E') (A2') (A1') (E') (E')
                 (E') (E') (A1') (A1') (A2') (E') (E') (A2") (E')
                 (E') (E") (E")
       Virtual   (E") (E") (A1') (E') (E') (A1") (E') (E') (A1')
                 (A2") (A2') (E') (E') (E") (E") (A1') (A1') (E')
                 (E') (E') (E') (E") (E") (E') (E') (E') (E') (A2')
                 (A1") (A1') (E') (E') (E') (E') (A2') (E') (E')
                 (A2') (E') (E') (E') (E') (A2') (A1') (A1') (A2")
                 (E') (E') (E") (E") (A2') (A1') (E') (E') (E")
                 (E") (A1") (E') (E') (A2') (E') (E') (A1') (A2')
                 (E') (E') (E') (E') (A2") (A2') (E') (E') (A2")
                 (E") (E") (E') (E') (E") (E") (A1') (A2') (A1')
                 (E') (E') (E") (E") (A1') (A1") (E') (E') (E')
                 (E') (A2") (E") (E") (E') (E') (A1') (E') (E')
                 (E") (E") (A2') (A2') (E') (E') (E") (E") (A1")
                 (A1") (A1') (E') (E') (E') (E') (E') (E') (A2")
                 (A2') (A1') (E") (E") (A2') (E') (E') (E') (E')
                 (E") (E") (E') (E') (A2') (A1') (A1") (E') (E')
                 (A1') (E') (E') (A2') (E') (E') (A2') (E') (E')
                 (A2') (A1') (E') (E') (A2') (E') (E')
 The electronic state of the initial guess is 1-A1'.
 Leave Link  401 at Thu Dec  2 19:53:00 2021, MaxMem=  498073600 cpu:       2.3
 (Enter /apps/software//g09/l502.exe)
 Closed shell SCF:
 Requested convergence on RMS density matrix=1.00D-08 within 128 cycles.
 Requested convergence on MAX density matrix=1.00D-06.
 Requested convergence on             energy=1.00D-06.
 No special actions if energy rises.
 Using DIIS extrapolation, IDIIS=  1040.
 Integral symmetry usage will be decided dynamically.
       103626 words used for storage of precomputed grid.
 Keep R1 ints in memory in canonical form, NReq=135877285.
 IEnd=      222296 IEndB=      222296 NGot=   498073600 MDV=   365210302
 LenX=   365210302 LenY=   365177461
 Symmetry not used in FoFDir.
 MinBra= 0 MaxBra= 2 Meth= 1.
 IRaf=       0 NMat=   1 IRICut=       1 DoRegI=T DoRafI=F ISym2E= 0 JSym2E=0.

 Cycle   1  Pass 1  IDiag  1:
 E= -232.054108336464    
 DIIS: error= 4.50D-02 at cycle   1 NSaved=   1.
 NSaved= 1 IEnMin= 1 EnMin= -232.054108336464     IErMin= 1 ErrMin= 4.50D-02
 ErrMax= 4.50D-02 EMaxC= 1.00D-01 BMatC= 2.01D-01 BMatP= 2.01D-01
 IDIUse=3 WtCom= 5.50D-01 WtEn= 4.50D-01
 Coeff-Com:  0.100D+01
 Coeff-En:   0.100D+01
 Coeff:      0.100D+01
 Gap=     0.157 Goal=   None    Shift=    0.000
 GapD=    0.157 DampG=1.000 DampE=0.500 DampFc=0.5000 IDamp=-1.
 Damping current iteration by 5.00D-01
 RMSDP=5.28D-03 MaxDP=8.87D-02              OVMax= 2.10D-01

 Cycle   2  Pass 1  IDiag  1:
 E= -232.141211287724     Delta-E=       -0.087102951260 Rises=F Damp=T
 DIIS: error= 9.62D-03 at cycle   2 NSaved=   2.
 NSaved= 2 IEnMin= 2 EnMin= -232.141211287724     IErMin= 2 ErrMin= 9.62D-03
 ErrMax= 9.62D-03 EMaxC= 1.00D-01 BMatC= 1.02D-02 BMatP= 2.01D-01
 IDIUse=3 WtCom= 9.04D-01 WtEn= 9.62D-02
 Coeff-Com:  0.474D-01 0.953D+00
 Coeff-En:   0.144D+00 0.856D+00
 Coeff:      0.567D-01 0.943D+00
 Gap=     0.268 Goal=   None    Shift=    0.000
 RMSDP=1.75D-03 MaxDP=3.19D-02 DE=-8.71D-02 OVMax= 1.23D-01

 Cycle   3  Pass 1  IDiag  1:
 E= -232.258422179871     Delta-E=       -0.117210892147 Rises=F Damp=F
 DIIS: error= 6.87D-03 at cycle   3 NSaved=   3.
 NSaved= 3 IEnMin= 3 EnMin= -232.258422179871     IErMin= 3 ErrMin= 6.87D-03
 ErrMax= 6.87D-03 EMaxC= 1.00D-01 BMatC= 3.41D-03 BMatP= 1.02D-02
 IDIUse=3 WtCom= 9.31D-01 WtEn= 6.87D-02
 Coeff-Com: -0.414D-01 0.335D+00 0.706D+00
 Coeff-En:   0.000D+00 0.000D+00 0.100D+01
 Coeff:     -0.386D-01 0.312D+00 0.726D+00
 Gap=     0.261 Goal=   None    Shift=    0.000
 RMSDP=4.63D-04 MaxDP=6.04D-03 DE=-1.17D-01 OVMax= 1.26D-02

 Cycle   4  Pass 1  IDiag  1:
 E= -232.261650230223     Delta-E=       -0.003228050352 Rises=F Damp=F
 DIIS: error= 7.00D-04 at cycle   4 NSaved=   4.
 NSaved= 4 IEnMin= 4 EnMin= -232.261650230223     IErMin= 4 ErrMin= 7.00D-04
 ErrMax= 7.00D-04 EMaxC= 1.00D-01 BMatC= 6.03D-05 BMatP= 3.41D-03
 IDIUse=3 WtCom= 9.93D-01 WtEn= 7.00D-03
 Coeff-Com: -0.138D-01 0.295D-01 0.155D+00 0.829D+00
 Coeff-En:   0.000D+00 0.000D+00 0.000D+00 0.100D+01
 Coeff:     -0.137D-01 0.293D-01 0.154D+00 0.830D+00
 Gap=     0.261 Goal=   None    Shift=    0.000
 RMSDP=8.59D-05 MaxDP=1.62D-03 DE=-3.23D-03 OVMax= 1.49D-03

 Cycle   5  Pass 1  IDiag  1:
 E= -232.261705684111     Delta-E=       -0.000055453889 Rises=F Damp=F
 DIIS: error= 4.24D-05 at cycle   5 NSaved=   5.
 NSaved= 5 IEnMin= 5 EnMin= -232.261705684111     IErMin= 5 ErrMin= 4.24D-05
 ErrMax= 4.24D-05 EMaxC= 1.00D-01 BMatC= 2.24D-07 BMatP= 6.03D-05
 IDIUse=1 WtCom= 1.00D+00 WtEn= 0.00D+00
 Coeff-Com: -0.730D-03-0.184D-03 0.664D-02 0.825D-01 0.912D+00
 Coeff:     -0.730D-03-0.184D-03 0.664D-02 0.825D-01 0.912D+00
 Gap=     0.261 Goal=   None    Shift=    0.000
 RMSDP=6.63D-06 MaxDP=9.07D-05 DE=-5.55D-05 OVMax= 1.19D-04

 Cycle   6  Pass 1  IDiag  1:
 E= -232.261705875734     Delta-E=       -0.000000191622 Rises=F Damp=F
 DIIS: error= 9.56D-06 at cycle   6 NSaved=   6.
 NSaved= 6 IEnMin= 6 EnMin= -232.261705875734     IErMin= 6 ErrMin= 9.56D-06
 ErrMax= 9.56D-06 EMaxC= 1.00D-01 BMatC= 9.03D-09 BMatP= 2.24D-07
 IDIUse=1 WtCom= 1.00D+00 WtEn= 0.00D+00
 Coeff-Com:  0.901D-04-0.544D-03-0.140D-02 0.361D-02 0.177D+00 0.822D+00
 Coeff:      0.901D-04-0.544D-03-0.140D-02 0.361D-02 0.177D+00 0.822D+00
 Gap=     0.261 Goal=   None    Shift=    0.000
 RMSDP=1.38D-06 MaxDP=1.97D-05 DE=-1.92D-07 OVMax= 2.05D-05

 Cycle   7  Pass 1  IDiag  1:
 E= -232.261705883731     Delta-E=       -0.000000007997 Rises=F Damp=F
 DIIS: error= 1.49D-06 at cycle   7 NSaved=   7.
 NSaved= 7 IEnMin= 7 EnMin= -232.261705883731     IErMin= 7 ErrMin= 1.49D-06
 ErrMax= 1.49D-06 EMaxC= 1.00D-01 BMatC= 2.22D-10 BMatP= 9.03D-09
 IDIUse=1 WtCom= 1.00D+00 WtEn= 0.00D+00
 Coeff-Com:  0.101D-04-0.312D-04-0.262D-03-0.679D-03 0.322D-03 0.122D+00
 Coeff-Com:  0.879D+00
 Coeff:      0.101D-04-0.312D-04-0.262D-03-0.679D-03 0.322D-03 0.122D+00
 Coeff:      0.879D+00
 Gap=     0.261 Goal=   None    Shift=    0.000
 RMSDP=1.94D-07 MaxDP=4.04D-06 DE=-8.00D-09 OVMax= 3.30D-06

 Cycle   8  Pass 1  IDiag  1:
 E= -232.261705883956     Delta-E=       -0.000000000225 Rises=F Damp=F
 DIIS: error= 7.15D-08 at cycle   8 NSaved=   8.
 NSaved= 8 IEnMin= 8 EnMin= -232.261705883956     IErMin= 8 ErrMin= 7.15D-08
 ErrMax= 7.15D-08 EMaxC= 1.00D-01 BMatC= 4.77D-13 BMatP= 2.22D-10
 IDIUse=1 WtCom= 1.00D+00 WtEn= 0.00D+00
 Coeff-Com: -0.503D-06-0.135D-06-0.742D-05-0.678D-04-0.746D-03-0.235D-02
 Coeff-Com:  0.157D-01 0.987D+00
 Coeff:     -0.503D-06-0.135D-06-0.742D-05-0.678D-04-0.746D-03-0.235D-02
 Coeff:      0.157D-01 0.987D+00
 Gap=     0.261 Goal=   None    Shift=    0.000
 RMSDP=2.13D-08 MaxDP=2.93D-07 DE=-2.25D-10 OVMax= 2.96D-07

 Cycle   9  Pass 1  IDiag  1:
 E= -232.261705883956     Delta-E=        0.000000000000 Rises=F Damp=F
 DIIS: error= 6.89D-09 at cycle   9 NSaved=   9.
 NSaved= 9 IEnMin= 9 EnMin= -232.261705883956     IErMin= 9 ErrMin= 6.89D-09
 ErrMax= 6.89D-09 EMaxC= 1.00D-01 BMatC= 4.36D-15 BMatP= 4.77D-13
 IDIUse=1 WtCom= 1.00D+00 WtEn= 0.00D+00
 Coeff-Com: -0.463D-07 0.377D-06 0.240D-05 0.148D-05-0.211D-04-0.967D-03
 Coeff-Com: -0.572D-02 0.940D-02 0.997D+00
 Coeff:     -0.463D-07 0.377D-06 0.240D-05 0.148D-05-0.211D-04-0.967D-03
 Coeff:     -0.572D-02 0.940D-02 0.997D+00
 Gap=     0.261 Goal=   None    Shift=    0.000
 DSYEVD returned Info=        2243 IAlg= 4 N=    65 NDim=   173 NE2=     2110851 trying DSYEV.
 RMSDP=1.33D-09 MaxDP=2.17D-08 DE=-2.27D-13 OVMax= 6.30D-08

 SCF Done:  E(RB3LYP) =  -232.261705884     A.U. after    9 cycles
             Convg  =    0.1328D-08             -V/T =  2.0029
 KE= 2.315997594243D+02 PE=-9.470692400447D+02 EE= 2.790672836491D+02
 Leave Link  502 at Thu Dec  2 19:53:06 2021, MaxMem=  498073600 cpu:      35.5
 (Enter /apps/software//g09/l601.exe)
 Copying SCF densities to generalized density rwf, IOpCl= 0 IROHF=0.

 **********************************************************************

            Population analysis using the SCF density.

 **********************************************************************

 Orbital symmetries:
       Occupied  (A1') (E') (E') (E') (E') (A2') (A1') (E') (E')
                 (E') (E') (A1') (A2') (A1') (E') (E') (A2") (E')
                 (E') (E") (E")
       Virtual   (E") (E") (A1') (E') (E') (E') (E') (A2") (A2')
                 (A1') (E") (E") (A1') (A1') (E') (E') (E') (E')
                 (A1") (E") (E") (E') (E') (E') (E') (A2') (E')
                 (E') (A1") (E') (E') (A1') (E') (E') (A2') (A2')
                 (E') (E') (E') (E') (E') (E') (A1') (A1') (A2')
                 (A2") (E') (E') (E") (E") (E') (E') (A2') (A1')
                 (E") (E") (A1") (E') (E') (A2') (A1') (E') (E')
                 (A2') (E') (E') (E') (E') (E') (E') (A2") (A2')
                 (E') (E') (A2") (E") (E") (E") (E") (A1') (A2')
                 (A1') (E') (E') (E") (E") (A1") (A1') (E') (E')
                 (E') (E') (A2") (E") (E") (E') (E') (A1') (E')
                 (E') (E") (E") (A2') (A2') (E') (E') (E") (E")
                 (A1") (A1") (A1') (E') (E') (E') (E') (E') (E')
                 (A2') (A2") (A1') (E') (E') (A2') (E') (E') (E")
                 (E") (E") (E") (A2') (E') (E') (A1') (A1") (E')
                 (E') (A1') (E') (E') (A2') (E') (E') (A2') (E')
                 (E') (A2') (A1') (E') (E') (A2') (E') (E')
 The electronic state is 1-A1'.
 Alpha  occ. eigenvalues --  -10.17272 -10.17257 -10.17257 -10.17127 -10.17127
 Alpha  occ. eigenvalues --  -10.17110  -0.86182  -0.76190  -0.76190  -0.59694
 Alpha  occ. eigenvalues --   -0.59694  -0.53097  -0.46330  -0.45061  -0.43536
 Alpha  occ. eigenvalues --   -0.43536  -0.37445  -0.33832  -0.33832  -0.26828
 Alpha  occ. eigenvalues --   -0.26828
 Alpha virt. eigenvalues --   -0.00682  -0.00682  -0.00660   0.01014   0.01014
 Alpha virt. eigenvalues --    0.03272   0.03272   0.06242   0.06402   0.07120
 Alpha virt. eigenvalues --    0.09027   0.09027   0.09824   0.11506   0.11799
 Alpha virt. eigenvalues --    0.11799   0.12048   0.12048   0.12888   0.14239
 Alpha virt. eigenvalues --    0.14239   0.14525   0.14525   0.15590   0.15590
 Alpha virt. eigenvalues --    0.17239   0.19352   0.19352   0.20394   0.22012
 Alpha virt. eigenvalues --    0.22012   0.23592   0.24468   0.24468   0.26809
 Alpha virt. eigenvalues --    0.30004   0.30622   0.30622   0.35548   0.35548
 Alpha virt. eigenvalues --    0.38391   0.38391   0.44280   0.47697   0.47742
 Alpha virt. eigenvalues --    0.52264   0.53186   0.53186   0.56910   0.56910
 Alpha virt. eigenvalues --    0.58876   0.58876   0.60581   0.61394   0.62545
 Alpha virt. eigenvalues --    0.62545   0.67854   0.68883   0.68883   0.70852
 Alpha virt. eigenvalues --    0.77802   0.79753   0.79753   0.80978   0.84011
 Alpha virt. eigenvalues --    0.84011   0.87817   0.87817   0.90545   0.90545
 Alpha virt. eigenvalues --    0.92352   0.94097   1.01956   1.01956   1.04861
 Alpha virt. eigenvalues --    1.07458   1.07458   1.15731   1.15731   1.28677
 Alpha virt. eigenvalues --    1.29687   1.41335   1.51566   1.51566   1.55992
 Alpha virt. eigenvalues --    1.55992   1.56510   1.58448   1.59482   1.59482
 Alpha virt. eigenvalues --    1.69933   1.69933   1.72010   1.77970   1.77970
 Alpha virt. eigenvalues --    1.83429   1.83429   1.85523   1.92393   1.92393
 Alpha virt. eigenvalues --    1.93601   1.93601   1.95518   2.00272   2.08594
 Alpha virt. eigenvalues --    2.08594   2.10285   2.10285   2.33002   2.34925
 Alpha virt. eigenvalues --    2.38995   2.39611   2.39611   2.46614   2.46614
 Alpha virt. eigenvalues --    2.60655   2.60655   2.65544   2.66034   2.67783
 Alpha virt. eigenvalues --    2.70641   2.70641   2.71993   2.75872   2.75872
 Alpha virt. eigenvalues --    2.78994   2.78994   2.89454   2.89454   2.94216
 Alpha virt. eigenvalues --    2.94912   2.94912   3.02023   3.07522   3.24158
 Alpha virt. eigenvalues --    3.24158   3.60220   3.62322   3.62322   3.67985
 Alpha virt. eigenvalues --    3.96786   3.96786   4.05775   4.10027   4.10027
 Alpha virt. eigenvalues --    4.71162  23.56394  23.71443  23.71443  24.49909
 Alpha virt. eigenvalues --   24.53305  24.53305
          Condensed to atoms (all electrons):
              1          2          3          4          5          6
     1  C    4.930735   0.404914  -0.068507   0.019082  -0.068507   0.616098
     2  C    0.404914   4.930735   0.616098  -0.068507   0.019082  -0.068507
     3  C   -0.068507   0.616098   4.930735   0.404914  -0.068507   0.019082
     4  C    0.019082  -0.068507   0.404914   4.930735   0.616098  -0.068507
     5  C   -0.068507   0.019082  -0.068507   0.616098   4.930735   0.404914
     6  C    0.616098  -0.068507   0.019082  -0.068507   0.404914   4.930735
     7  H    0.416776  -0.044626  -0.003750   0.006265   0.008709  -0.067864
     8  H   -0.044626   0.416776  -0.067864   0.008709   0.006265  -0.003750
     9  H    0.008709  -0.067864   0.416776  -0.044626  -0.003750   0.006265
    10  H    0.006265  -0.003750  -0.044626   0.416776  -0.067864   0.008709
    11  H   -0.003750   0.006265   0.008709  -0.067864   0.416776  -0.044626
    12  H   -0.067864   0.008709   0.006265  -0.003750  -0.044626   0.416776
              7          8          9         10         11         12
     1  C    0.416776  -0.044626   0.008709   0.006265  -0.003750  -0.067864
     2  C   -0.044626   0.416776  -0.067864  -0.003750   0.006265   0.008709
     3  C   -0.003750  -0.067864   0.416776  -0.044626   0.008709   0.006265
     4  C    0.006265   0.008709  -0.044626   0.416776  -0.067864  -0.003750
     5  C    0.008709   0.006265  -0.003750  -0.067864   0.416776  -0.044626
     6  C   -0.067864  -0.003750   0.006265   0.008709  -0.044626   0.416776
     7  H    0.557647  -0.001686  -0.000493   0.001102  -0.000493  -0.020909
     8  H   -0.001686   0.557647  -0.020909  -0.000493   0.001102  -0.000493
     9  H   -0.000493  -0.020909   0.557647  -0.001686  -0.000493   0.001102
    10  H    0.001102  -0.000493  -0.001686   0.557647  -0.020909  -0.000493
    11  H   -0.000493   0.001102  -0.000493  -0.020909   0.557647  -0.001686
    12  H   -0.020909  -0.000493   0.001102  -0.000493  -0.001686   0.557647
 Mulliken atomic charges:
              1
     1  C   -0.149323
     2  C   -0.149323
     3  C   -0.149323
     4  C   -0.149323
     5  C   -0.149323
     6  C   -0.149323
     7  H    0.149323
     8  H    0.149323
     9  H    0.149323
    10  H    0.149323
    11  H    0.149323
    12  H    0.149323
 Sum of Mulliken atomic charges =   0.00000
 Mulliken charges with hydrogens summed into heavy atoms:
              1
     1  C    0.000000
     2  C    0.000000
     3  C    0.000000
     4  C    0.000000
     5  C    0.000000
     6  C    0.000000
 Sum of Mulliken charges with hydrogens summed into heavy atoms =   0.00000
 Electronic spatial extent (au):  <R**2>=            459.9029
 Charge=              0.0000 electrons
 Dipole moment (field-independent basis, Debye):
    X=              0.0000    Y=              0.0000    Z=              0.0000  Tot=              0.0000
 Quadrupole moment (field-independent basis, Debye-Ang):
   XX=            -32.0885   YY=            -32.0885   ZZ=            -39.9028
   XY=              0.0000   XZ=              0.0000   YZ=              0.0000
 Traceless Quadrupole moment (field-independent basis, Debye-Ang):
   XX=              2.6048   YY=              2.6048   ZZ=             -5.2095
   XY=              0.0000   XZ=              0.0000   YZ=              0.0000
 Octapole moment (field-independent basis, Debye-Ang**2):
  XXX=              0.0000  YYY=              0.5773  ZZZ=              0.0000  XYY=              0.0000
  XXY=             -0.5773  XXZ=              0.0000  XZZ=              0.0000  YZZ=              0.0000
  YYZ=              0.0000  XYZ=              0.0000
 Hexadecapole moment (field-independent basis, Debye-Ang**3):
 XXXX=           -276.4924 YYYY=           -276.4924 ZZZZ=            -48.5242 XXXY=              0.0000
 XXXZ=              0.0000 YYYX=              0.0000 YYYZ=              0.0000 ZZZX=              0.0000
 ZZZY=              0.0000 XXYY=            -92.1641 XXZZ=            -64.7056 YYZZ=            -64.7056
 XXYZ=              0.0000 YYXZ=              0.0000 ZZXY=              0.0000
 N-N= 2.041404910873D+02 E-N=-9.470692408656D+02  KE= 2.315997594243D+02
 Symmetry A1   KE= 1.152461640893D+02
 Symmetry A2   KE= 2.286898081221D+00
 Symmetry B1   KE= 1.098758944351D+02
 Symmetry B2   KE= 4.190802818633D+00
 No NMR shielding tensors so no spin-rotation constants.
 Leave Link  601 at Thu Dec  2 19:53:06 2021, MaxMem=  498073600 cpu:       1.7
 (Enter /apps/software//g09/l9999.exe)
 1\1\GINC-DLT06\SP\RB3LYP\6-311++G(d,p)\C6H6\ITAMAR\02-Dec-2021\0\\#P B
 3LYP/6-311++G**\\Bla-0.25\\0,1\C,0,0.634832,1.243898,0.\C,0,1.394663,-
 0.072169,0.\C,0,0.759832,-1.171729,0.\C,0,-0.759832,-1.171729,0.\C,0,-
 1.394663,-0.072169,0.\C,0,-0.634832,1.243898,0.\H,0,1.177044,2.183038,
 0.\H,0,2.479089,-0.072169,0.\H,0,1.302044,-2.110869,0.\H,0,-1.302044,-
 2.110869,0.\H,0,-2.479089,-0.072169,0.\H,0,-1.177044,2.183038,0.\\Vers
 ion=EM64L-G09RevA.02\State=1-A1'\HF=-232.2617059\RMSD=1.328e-09\Dipole
 =0.,0.,0.\Quadrupole=1.9365838,1.9365838,-3.8731676,0.,0.,0.\PG=D03H [
 SGH(C6H6)]\\@


 SILVERMAN'S PARADOX - IF MURPHY'S LAW CAN GO WRONG, IT WILL.
 Job cpu time:  0 days  0 hours  0 minutes 43.0 seconds.
 File lengths (MBytes):  RWF=     15 Int=      0 D2E=      0 Chk=      3 Scr=      1
 Normal termination of Gaussian 09 at Thu Dec  2 19:53:07 2021.
