Bla-0.25                                                                
SP        RB3LYP                                                      6-311++G(d,p)       
Number of atoms                            I               12
Info1-9                                    I   N=           9
          23          21           0           0           0         110
           1          18        -502
Charge                                     I                0
Multiplicity                               I                1
Number of electrons                        I               42
Number of alpha electrons                  I               21
Number of beta electrons                   I               21
Number of basis functions                  I              174
Number of independent functions            I              173
Number of point charges in /Mol/           I                0
Number of translation vectors              I                0
Atomic numbers                             I   N=          12
           6           6           6           6           6           6
           1           1           1           1           1           1
Nuclear charges                            R   N=          12
  6.00000000E+00  6.00000000E+00  6.00000000E+00  6.00000000E+00  6.00000000E+00
  6.00000000E+00  1.00000000E+00  1.00000000E+00  1.00000000E+00  1.00000000E+00
  1.00000000E+00  1.00000000E+00
Current cartesian coordinates              R   N=          36
  1.19965862E+00  2.35062656E+00  0.00000000E+00  2.63553162E+00 -1.36378437E-01
 -1.75843728E-16  1.43587300E+00 -2.21424812E+00  0.00000000E+00 -1.43587300E+00
 -2.21424812E+00  3.22759537E-16 -2.63553162E+00 -1.36378437E-01  0.00000000E+00
 -1.19965862E+00  2.35062656E+00 -1.46915809E-16  2.22429081E+00  4.12534396E+00
  0.00000000E+00  4.68479807E+00 -1.36379635E-01 -3.01325234E-16  2.46050726E+00
 -3.98896432E+00  0.00000000E+00 -2.46050726E+00 -3.98896432E+00  5.73722296E-16
 -4.68479807E+00 -1.36379635E-01  0.00000000E+00 -2.22429081E+00  4.12534396E+00
 -2.72397062E-16
Force Field                                I                0
Int Atom Types                             I   N=          12
           0           0           0           0           0           0
           0           0           0           0           0           0
MM charges                                 R   N=          12
  0.00000000E+00  0.00000000E+00  0.00000000E+00  0.00000000E+00  0.00000000E+00
  0.00000000E+00  0.00000000E+00  0.00000000E+00  0.00000000E+00  0.00000000E+00
  0.00000000E+00  0.00000000E+00
Integer atomic weights                     I   N=          12
          12          12          12          12          12          12
           1           1           1           1           1           1
Real atomic weights                        R   N=          12
  1.20000000E+01  1.20000000E+01  1.20000000E+01  1.20000000E+01  1.20000000E+01
  1.20000000E+01  1.00782504E+00  1.00782504E+00  1.00782504E+00  1.00782504E+00
  1.00782504E+00  1.00782504E+00
Atom fragment info                         I   N=          12
           0           0           0           0           0           0
           0           0           0           0           0           0
Atom residue num                           I   N=          12
           0           0           0           0           0           0
           0           0           0           0           0           0
Nuclear spins                              I   N=          12
           0           0           0           0           0           0
           1           1           1           1           1           1
Nuclear ZEff                               R   N=          12
 -3.60000000E+00 -3.60000000E+00 -3.60000000E+00 -3.60000000E+00 -3.60000000E+00
 -3.60000000E+00 -1.00000000E+00 -1.00000000E+00 -1.00000000E+00 -1.00000000E+00
 -1.00000000E+00 -1.00000000E+00
Nuclear QMom                               R   N=          12
  0.00000000E+00  0.00000000E+00  0.00000000E+00  0.00000000E+00  0.00000000E+00
  0.00000000E+00  0.00000000E+00  0.00000000E+00  0.00000000E+00  0.00000000E+00
  0.00000000E+00  0.00000000E+00
Nuclear GFac                               R   N=          12
  0.00000000E+00  0.00000000E+00  0.00000000E+00  0.00000000E+00  0.00000000E+00
  0.00000000E+00  2.79284600E+00  2.79284600E+00  2.79284600E+00  2.79284600E+00
  2.79284600E+00  2.79284600E+00
MicOpt                                     I   N=          12
          -1          -1          -1          -1          -1          -1
          -1          -1          -1          -1          -1          -1
Number of contracted shells                I               66
Number of primitive shells                 I              120
Pure/Cartesian d shells                    I                0
Pure/Cartesian f shells                    I                0
Highest angular momentum                   I                2
Largest degree of contraction              I                6
Shell types                                I   N=          66
           0          -1          -1          -1          -1          -2
           0          -1          -1          -1          -1          -2
           0          -1          -1          -1          -1          -2
           0          -1          -1          -1          -1          -2
           0          -1          -1          -1          -1          -2
           0          -1          -1          -1          -1          -2
           0           0           0           0           1           0
           0           0           0           1           0           0
           0           0           1           0           0           0
           0           1           0           0           0           0
           1           0           0           0           0           1
Number of primitives per shell             I   N=          66
           6           3           1           1           1           1
           6           3           1           1           1           1
           6           3           1           1           1           1
           6           3           1           1           1           1
           6           3           1           1           1           1
           6           3           1           1           1           1
           3           1           1           1           1           3
           1           1           1           1           3           1
           1           1           1           3           1           1
           1           1           3           1           1           1
           1           3           1           1           1           1
Shell to atom map                          I   N=          66
           1           1           1           1           1           1
           2           2           2           2           2           2
           3           3           3           3           3           3
           4           4           4           4           4           4
           5           5           5           5           5           5
           6           6           6           6           6           6
           7           7           7           7           7           8
           8           8           8           8           9           9
           9           9           9          10          10          10
          10          10          11          11          11          11
          11          12          12          12          12          12
Primitive exponents                        R   N=         120
  4.56324000E+03  6.82024000E+02  1.54973000E+02  4.44553000E+01  1.30290000E+01
  1.82773000E+00  2.09642000E+01  4.80331000E+00  1.45933000E+00  4.83456000E-01
  1.45585000E-01  4.38000000E-02  6.26000000E-01  4.56324000E+03  6.82024000E+02
  1.54973000E+02  4.44553000E+01  1.30290000E+01  1.82773000E+00  2.09642000E+01
  4.80331000E+00  1.45933000E+00  4.83456000E-01  1.45585000E-01  4.38000000E-02
  6.26000000E-01  4.56324000E+03  6.82024000E+02  1.54973000E+02  4.44553000E+01
  1.30290000E+01  1.82773000E+00  2.09642000E+01  4.80331000E+00  1.45933000E+00
  4.83456000E-01  1.45585000E-01  4.38000000E-02  6.26000000E-01  4.56324000E+03
  6.82024000E+02  1.54973000E+02  4.44553000E+01  1.30290000E+01  1.82773000E+00
  2.09642000E+01  4.80331000E+00  1.45933000E+00  4.83456000E-01  1.45585000E-01
  4.38000000E-02  6.26000000E-01  4.56324000E+03  6.82024000E+02  1.54973000E+02
  4.44553000E+01  1.30290000E+01  1.82773000E+00  2.09642000E+01  4.80331000E+00
  1.45933000E+00  4.83456000E-01  1.45585000E-01  4.38000000E-02  6.26000000E-01
  4.56324000E+03  6.82024000E+02  1.54973000E+02  4.44553000E+01  1.30290000E+01
  1.82773000E+00  2.09642000E+01  4.80331000E+00  1.45933000E+00  4.83456000E-01
  1.45585000E-01  4.38000000E-02  6.26000000E-01  3.38650000E+01  5.09479000E+00
  1.15879000E+00  3.25840000E-01  1.02741000E-01  3.60000000E-02  7.50000000E-01
  3.38650000E+01  5.09479000E+00  1.15879000E+00  3.25840000E-01  1.02741000E-01
  3.60000000E-02  7.50000000E-01  3.38650000E+01  5.09479000E+00  1.15879000E+00
  3.25840000E-01  1.02741000E-01  3.60000000E-02  7.50000000E-01  3.38650000E+01
  5.09479000E+00  1.15879000E+00  3.25840000E-01  1.02741000E-01  3.60000000E-02
  7.50000000E-01  3.38650000E+01  5.09479000E+00  1.15879000E+00  3.25840000E-01
  1.02741000E-01  3.60000000E-02  7.50000000E-01  3.38650000E+01  5.09479000E+00
  1.15879000E+00  3.25840000E-01  1.02741000E-01  3.60000000E-02  7.50000000E-01
Contraction coefficients                   R   N=         120
  1.96665025E-03  1.52306019E-02  7.61269097E-02  2.60801033E-01  6.16462078E-01
  2.21006028E-01  1.14660081E-01  9.19999648E-01 -3.03068213E-03  1.00000000E+00
  1.00000000E+00  1.00000000E+00  1.00000000E+00  1.96665025E-03  1.52306019E-02
  7.61269097E-02  2.60801033E-01  6.16462078E-01  2.21006028E-01  1.14660081E-01
  9.19999648E-01 -3.03068213E-03  1.00000000E+00  1.00000000E+00  1.00000000E+00
  1.00000000E+00  1.96665025E-03  1.52306019E-02  7.61269097E-02  2.60801033E-01
  6.16462078E-01  2.21006028E-01  1.14660081E-01  9.19999648E-01 -3.03068213E-03
  1.00000000E+00  1.00000000E+00  1.00000000E+00  1.00000000E+00  1.96665025E-03
  1.52306019E-02  7.61269097E-02  2.60801033E-01  6.16462078E-01  2.21006028E-01
  1.14660081E-01  9.19999648E-01 -3.03068213E-03  1.00000000E+00  1.00000000E+00
  1.00000000E+00  1.00000000E+00  1.96665025E-03  1.52306019E-02  7.61269097E-02
  2.60801033E-01  6.16462078E-01  2.21006028E-01  1.14660081E-01  9.19999648E-01
 -3.03068213E-03  1.00000000E+00  1.00000000E+00  1.00000000E+00  1.00000000E+00
  1.96665025E-03  1.52306019E-02  7.61269097E-02  2.60801033E-01  6.16462078E-01
  2.21006028E-01  1.14660081E-01  9.19999648E-01 -3.03068213E-03  1.00000000E+00
  1.00000000E+00  1.00000000E+00  1.00000000E+00  2.54938145E-02  1.90373109E-01
  8.52161486E-01  1.00000000E+00  1.00000000E+00  1.00000000E+00  1.00000000E+00
  2.54938145E-02  1.90373109E-01  8.52161486E-01  1.00000000E+00  1.00000000E+00
  1.00000000E+00  1.00000000E+00  2.54938145E-02  1.90373109E-01  8.52161486E-01
  1.00000000E+00  1.00000000E+00  1.00000000E+00  1.00000000E+00  2.54938145E-02
  1.90373109E-01  8.52161486E-01  1.00000000E+00  1.00000000E+00  1.00000000E+00
  1.00000000E+00  2.54938145E-02  1.90373109E-01  8.52161486E-01  1.00000000E+00
  1.00000000E+00  1.00000000E+00  1.00000000E+00  2.54938145E-02  1.90373109E-01
  8.52161486E-01  1.00000000E+00  1.00000000E+00  1.00000000E+00  1.00000000E+00
P(S=P) Contraction coefficients            R   N=         120
  0.00000000E+00  0.00000000E+00  0.00000000E+00  0.00000000E+00  0.00000000E+00
  0.00000000E+00  4.02486927E-02  2.37593957E-01  8.15853851E-01  1.00000000E+00
  1.00000000E+00  1.00000000E+00  0.00000000E+00  0.00000000E+00  0.00000000E+00
  0.00000000E+00  0.00000000E+00  0.00000000E+00  0.00000000E+00  4.02486927E-02
  2.37593957E-01  8.15853851E-01  1.00000000E+00  1.00000000E+00  1.00000000E+00
  0.00000000E+00  0.00000000E+00  0.00000000E+00  0.00000000E+00  0.00000000E+00
  0.00000000E+00  0.00000000E+00  4.02486927E-02  2.37593957E-01  8.15853851E-01
  1.00000000E+00  1.00000000E+00  1.00000000E+00  0.00000000E+00  0.00000000E+00
  0.00000000E+00  0.00000000E+00  0.00000000E+00  0.00000000E+00  0.00000000E+00
  4.02486927E-02  2.37593957E-01  8.15853851E-01  1.00000000E+00  1.00000000E+00
  1.00000000E+00  0.00000000E+00  0.00000000E+00  0.00000000E+00  0.00000000E+00
  0.00000000E+00  0.00000000E+00  0.00000000E+00  4.02486927E-02  2.37593957E-01
  8.15853851E-01  1.00000000E+00  1.00000000E+00  1.00000000E+00  0.00000000E+00
  0.00000000E+00  0.00000000E+00  0.00000000E+00  0.00000000E+00  0.00000000E+00
  0.00000000E+00  4.02486927E-02  2.37593957E-01  8.15853851E-01  1.00000000E+00
  1.00000000E+00  1.00000000E+00  0.00000000E+00  0.00000000E+00  0.00000000E+00
  0.00000000E+00  0.00000000E+00  0.00000000E+00  0.00000000E+00  0.00000000E+00
  0.00000000E+00  0.00000000E+00  0.00000000E+00  0.00000000E+00  0.00000000E+00
  0.00000000E+00  0.00000000E+00  0.00000000E+00  0.00000000E+00  0.00000000E+00
  0.00000000E+00  0.00000000E+00  0.00000000E+00  0.00000000E+00  0.00000000E+00
  0.00000000E+00  0.00000000E+00  0.00000000E+00  0.00000000E+00  0.00000000E+00
  0.00000000E+00  0.00000000E+00  0.00000000E+00  0.00000000E+00  0.00000000E+00
  0.00000000E+00  0.00000000E+00  0.00000000E+00  0.00000000E+00  0.00000000E+00
  0.00000000E+00  0.00000000E+00  0.00000000E+00  0.00000000E+00  0.00000000E+00
Coordinates of each shell                  R   N=         198
  1.19965862E+00  2.35062656E+00  0.00000000E+00  1.19965862E+00  2.35062656E+00
  0.00000000E+00  1.19965862E+00  2.35062656E+00  0.00000000E+00  1.19965862E+00
  2.35062656E+00  0.00000000E+00  1.19965862E+00  2.35062656E+00  0.00000000E+00
  1.19965862E+00  2.35062656E+00  0.00000000E+00  2.63553162E+00 -1.36378437E-01
 -1.75843728E-16  2.63553162E+00 -1.36378437E-01 -1.75843728E-16  2.63553162E+00
 -1.36378437E-01 -1.75843728E-16  2.63553162E+00 -1.36378437E-01 -1.75843728E-16
  2.63553162E+00 -1.36378437E-01 -1.75843728E-16  2.63553162E+00 -1.36378437E-01
 -1.75843728E-16  1.43587300E+00 -2.21424812E+00  0.00000000E+00  1.43587300E+00
 -2.21424812E+00  0.00000000E+00  1.43587300E+00 -2.21424812E+00  0.00000000E+00
  1.43587300E+00 -2.21424812E+00  0.00000000E+00  1.43587300E+00 -2.21424812E+00
  0.00000000E+00  1.43587300E+00 -2.21424812E+00  0.00000000E+00 -1.43587300E+00
 -2.21424812E+00  3.22759537E-16 -1.43587300E+00 -2.21424812E+00  3.22759537E-16
 -1.43587300E+00 -2.21424812E+00  3.22759537E-16 -1.43587300E+00 -2.21424812E+00
  3.22759537E-16 -1.43587300E+00 -2.21424812E+00  3.22759537E-16 -1.43587300E+00
 -2.21424812E+00  3.22759537E-16 -2.63553162E+00 -1.36378437E-01  0.00000000E+00
 -2.63553162E+00 -1.36378437E-01  0.00000000E+00 -2.63553162E+00 -1.36378437E-01
  0.00000000E+00 -2.63553162E+00 -1.36378437E-01  0.00000000E+00 -2.63553162E+00
 -1.36378437E-01  0.00000000E+00 -2.63553162E+00 -1.36378437E-01  0.00000000E+00
 -1.19965862E+00  2.35062656E+00 -1.46915809E-16 -1.19965862E+00  2.35062656E+00
 -1.46915809E-16 -1.19965862E+00  2.35062656E+00 -1.46915809E-16 -1.19965862E+00
  2.35062656E+00 -1.46915809E-16 -1.19965862E+00  2.35062656E+00 -1.46915809E-16
 -1.19965862E+00  2.35062656E+00 -1.46915809E-16  2.22429081E+00  4.12534396E+00
  0.00000000E+00  2.22429081E+00  4.12534396E+00  0.00000000E+00  2.22429081E+00
  4.12534396E+00  0.00000000E+00  2.22429081E+00  4.12534396E+00  0.00000000E+00
  2.22429081E+00  4.12534396E+00  0.00000000E+00  4.68479807E+00 -1.36379635E-01
 -3.01325234E-16  4.68479807E+00 -1.36379635E-01 -3.01325234E-16  4.68479807E+00
 -1.36379635E-01 -3.01325234E-16  4.68479807E+00 -1.36379635E-01 -3.01325234E-16
  4.68479807E+00 -1.36379635E-01 -3.01325234E-16  2.46050726E+00 -3.98896432E+00
  0.00000000E+00  2.46050726E+00 -3.98896432E+00  0.00000000E+00  2.46050726E+00
 -3.98896432E+00  0.00000000E+00  2.46050726E+00 -3.98896432E+00  0.00000000E+00
  2.46050726E+00 -3.98896432E+00  0.00000000E+00 -2.46050726E+00 -3.98896432E+00
  5.73722296E-16 -2.46050726E+00 -3.98896432E+00  5.73722296E-16 -2.46050726E+00
 -3.98896432E+00  5.73722296E-16 -2.46050726E+00 -3.98896432E+00  5.73722296E-16
 -2.46050726E+00 -3.98896432E+00  5.73722296E-16 -4.68479807E+00 -1.36379635E-01
  0.00000000E+00 -4.68479807E+00 -1.36379635E-01  0.00000000E+00 -4.68479807E+00
 -1.36379635E-01  0.00000000E+00 -4.68479807E+00 -1.36379635E-01  0.00000000E+00
 -4.68479807E+00 -1.36379635E-01  0.00000000E+00 -2.22429081E+00  4.12534396E+00
 -2.72397062E-16 -2.22429081E+00  4.12534396E+00 -2.72397062E-16 -2.22429081E+00
  4.12534396E+00 -2.72397062E-16 -2.22429081E+00  4.12534396E+00 -2.72397062E-16
 -2.22429081E+00  4.12534396E+00 -2.72397062E-16
Constraint Structure                       R   N=          36
  1.19965862E+00  2.35062656E+00  0.00000000E+00  2.63553162E+00 -1.36378437E-01
 -1.75843728E-16  1.43587300E+00 -2.21424812E+00  0.00000000E+00 -1.43587300E+00
 -2.21424812E+00  3.22759537E-16 -2.63553162E+00 -1.36378437E-01  0.00000000E+00
 -1.19965862E+00  2.35062656E+00 -1.46915809E-16  2.22429081E+00  4.12534396E+00
  0.00000000E+00  4.68479807E+00 -1.36379635E-01 -3.01325234E-16  2.46050726E+00
 -3.98896432E+00  0.00000000E+00 -2.46050726E+00 -3.98896432E+00  5.73722296E-16
 -4.68479807E+00 -1.36379635E-01  0.00000000E+00 -2.22429081E+00  4.12534396E+00
 -2.72397062E-16
Num ILSW                                   I              100
ILSW                                       I   N=         100
           0           0           0           0           2           0
           0           0           0           0         402          -1
           0           0           0           0           0           0
           0           0           0           0           0           0
           1           0           0           0           0           0
           0           0      100000           0          -1           0
           0           0           0           0           0           0
           0           0           0           1           0           0
           0           0           1           0           0           0
           0           0           4          40           0           0
           0           0           5           0           0           0
           0           0           0           0           0           0
           0           0           0           0           0           0
           0           0           0           0           0           0
           0           0           0           0           0           0
           0           0           0           0           0           0
           0           0           0           0
Num RLSW                                   I               40
RLSW                                       R   N=          40
  8.00000000E-01  7.20000000E-01  1.00000000E+00  8.10000000E-01  2.00000000E-01
  0.00000000E+00  0.00000000E+00  1.00000000E+00  0.00000000E+00  0.00000000E+00
  0.00000000E+00  0.00000000E+00  1.00000000E+00  0.00000000E+00  0.00000000E+00
  0.00000000E+00  0.00000000E+00  1.00000000E+00  0.00000000E+00  0.00000000E+00
  0.00000000E+00  0.00000000E+00  1.00000000E+00  0.00000000E+00  0.00000000E+00
  0.00000000E+00  0.00000000E+00  1.00000000E+00  0.00000000E+00  0.00000000E+00
  0.00000000E+00  0.00000000E+00  0.00000000E+00  0.00000000E+00  0.00000000E+00
  0.00000000E+00  0.00000000E+00  0.00000000E+00  1.00000000E+00  1.00000000E+00
MxBond                                     I                3
NBond                                      I   N=          12
           3           3           3           3           3           3
           1           1           1           1           1           1
IBond                                      I   N=          36
           2           6           7           1           3           8
           2           4           9           3           5          10
           4           6          11           1           5          12
           1           0           0           2           0           0
           3           0           0           4           0           0
           5           0           0           6           0           0
RBond                                      R   N=          36
  1.00000000E+00  2.00000000E+00  1.00000000E+00  1.00000000E+00  2.00000000E+00
  1.00000000E+00  2.00000000E+00  1.00000000E+00  1.00000000E+00  1.00000000E+00
  2.00000000E+00  1.00000000E+00  2.00000000E+00  1.00000000E+00  1.00000000E+00
  2.00000000E+00  1.00000000E+00  1.00000000E+00  1.00000000E+00  0.00000000E+00
  0.00000000E+00  1.00000000E+00  0.00000000E+00  0.00000000E+00  1.00000000E+00
  0.00000000E+00  0.00000000E+00  1.00000000E+00  0.00000000E+00  0.00000000E+00
  1.00000000E+00  0.00000000E+00  0.00000000E+00  1.00000000E+00  0.00000000E+00
  0.00000000E+00
Virial Ratio                               R      2.002858148304012E+00
SCF Energy                                 R     -2.322617058839561E+02
Total Energy                               R     -2.322617058839561E+02
RMS Density                                R      1.327809671107162E-09
External E-field                           R   N=          35
  0.00000000E+00  0.00000000E+00  0.00000000E+00  0.00000000E+00  0.00000000E+00
  0.00000000E+00  0.00000000E+00  0.00000000E+00  0.00000000E+00  0.00000000E+00
  0.00000000E+00  0.00000000E+00  0.00000000E+00  0.00000000E+00  0.00000000E+00
  0.00000000E+00  0.00000000E+00  0.00000000E+00  0.00000000E+00  0.00000000E+00
  0.00000000E+00  0.00000000E+00  0.00000000E+00  0.00000000E+00  0.00000000E+00
  0.00000000E+00  0.00000000E+00  0.00000000E+00  0.00000000E+00  0.00000000E+00
  0.00000000E+00  0.00000000E+00  0.00000000E+00  0.00000000E+00  0.00000000E+00
IOpCl                                      I                0
IROHF                                      I                0
Alpha Orbital Energies                     R   N=         173
 -1.01727186E+01 -1.01725663E+01 -1.01725663E+01 -1.01712744E+01 -1.01712744E+01
 -1.01711010E+01 -8.61816075E-01 -7.61902110E-01 -7.61902110E-01 -5.96935510E-01
 -5.96935510E-01 -5.30971379E-01 -4.63295404E-01 -4.50610606E-01 -4.35364555E-01
 -4.35364555E-01 -3.74447098E-01 -3.38324800E-01 -3.38324800E-01 -2.68278011E-01
 -2.68278011E-01 -6.82253295E-03 -6.82253295E-03 -6.59721861E-03  1.01409066E-02
  1.01409067E-02  3.27240235E-02  3.27240235E-02  6.24176801E-02  6.40213332E-02
  7.11994201E-02  9.02738790E-02  9.02738790E-02  9.82443071E-02  1.15058245E-01
  1.17990428E-01  1.17990428E-01  1.20483143E-01  1.20483143E-01  1.28882369E-01
  1.42390779E-01  1.42390779E-01  1.45249273E-01  1.45249273E-01  1.55903790E-01
  1.55903790E-01  1.72391951E-01  1.93516069E-01  1.93516070E-01  2.03939943E-01
  2.20124078E-01  2.20124079E-01  2.35917483E-01  2.44683590E-01  2.44683590E-01
  2.68091490E-01  3.00041414E-01  3.06219882E-01  3.06219883E-01  3.55479174E-01
  3.55479175E-01  3.83909993E-01  3.83909993E-01  4.42804848E-01  4.76969992E-01
  4.77416156E-01  5.22640658E-01  5.31861542E-01  5.31861542E-01  5.69098499E-01
  5.69098499E-01  5.88755753E-01  5.88755753E-01  6.05813596E-01  6.13935910E-01
  6.25452954E-01  6.25452954E-01  6.78544697E-01  6.88828668E-01  6.88828668E-01
  7.08523438E-01  7.78022780E-01  7.97529827E-01  7.97529827E-01  8.09777241E-01
  8.40107077E-01  8.40107077E-01  8.78166835E-01  8.78166836E-01  9.05453110E-01
  9.05453110E-01  9.23515125E-01  9.40974166E-01  1.01956471E+00  1.01956471E+00
  1.04861315E+00  1.07457560E+00  1.07457560E+00  1.15731191E+00  1.15731191E+00
  1.28676569E+00  1.29686967E+00  1.41335324E+00  1.51565558E+00  1.51565558E+00
  1.55991942E+00  1.55991942E+00  1.56509664E+00  1.58448241E+00  1.59482081E+00
  1.59482081E+00  1.69932650E+00  1.69932650E+00  1.72009885E+00  1.77969894E+00
  1.77969894E+00  1.83428706E+00  1.83428706E+00  1.85522785E+00  1.92393429E+00
  1.92393429E+00  1.93601425E+00  1.93601425E+00  1.95517945E+00  2.00271747E+00
  2.08594399E+00  2.08594399E+00  2.10284815E+00  2.10284815E+00  2.33002332E+00
  2.34924952E+00  2.38995398E+00  2.39611139E+00  2.39611139E+00  2.46613569E+00
  2.46613569E+00  2.60655368E+00  2.60655368E+00  2.65544155E+00  2.66033938E+00
  2.67783339E+00  2.70641394E+00  2.70641394E+00  2.71993234E+00  2.75872195E+00
  2.75872195E+00  2.78993751E+00  2.78993751E+00  2.89453591E+00  2.89453591E+00
  2.94216332E+00  2.94912340E+00  2.94912340E+00  3.02022920E+00  3.07521619E+00
  3.24158247E+00  3.24158247E+00  3.60220217E+00  3.62321742E+00  3.62321742E+00
  3.67984569E+00  3.96785610E+00  3.96785610E+00  4.05775246E+00  4.10027399E+00
  4.10027399E+00  4.71162449E+00  2.35639378E+01  2.37144324E+01  2.37144324E+01
  2.44990897E+01  2.45330497E+01  2.45330497E+01
Alpha MO coefficients                      R   N=       30102
  2.29692571E-01  1.89261929E-01 -1.17879162E-04 -2.59211944E-04  0.00000000E+00
  7.35381723E-03  7.99856515E-04  1.41313604E-03  0.00000000E+00 -3.64230934E-03
 -1.34895383E-04 -2.72075099E-04  0.00000000E+00 -1.89319922E-03 -9.25783112E-04
 -1.56411544E-03  0.00000000E+00 -3.46250365E-04  0.00000000E+00  0.00000000E+00
 -3.27854572E-04  7.96000731E-04  2.29692571E-01  1.89261929E-01 -2.83423710E-04
  2.75196230E-05  0.00000000E+00  7.35381723E-03  1.62373997E-03 -1.38719597E-05
  0.00000000E+00 -3.64230935E-03 -3.03071638E-04  1.92147213E-05  0.00000000E+00
 -1.89319922E-03 -1.81745526E-03 -1.96939768E-05  0.00000000E+00 -3.46250365E-04
  0.00000000E+00  0.00000000E+00  8.53284140E-04  1.14069978E-04  2.29692571E-01
  1.89261929E-01 -1.65544548E-04  2.31692321E-04  0.00000000E+00  7.35381723E-03
  8.23883454E-04 -1.39926408E-03  0.00000000E+00 -3.64230935E-03 -1.68176256E-04
  2.52860378E-04  0.00000000E+00 -1.89319923E-03 -8.91672148E-04  1.58380941E-03
  0.00000000E+00 -3.46250365E-04  0.00000000E+00  0.00000000E+00 -5.25429569E-04
 -6.81930753E-04  2.29692571E-01  1.89261929E-01  1.65544548E-04  2.31692321E-04
  0.00000000E+00  7.35381723E-03 -8.23883454E-04 -1.39926408E-03  0.00000000E+00
 -3.64230935E-03  1.68176256E-04  2.52860378E-04  0.00000000E+00 -1.89319923E-03
  8.91672148E-04  1.58380941E-03  0.00000000E+00 -3.46250365E-04  0.00000000E+00
  0.00000000E+00 -5.25429569E-04  6.81930753E-04  2.29692571E-01  1.89261929E-01
  2.83423710E-04  2.75196230E-05  0.00000000E+00  7.35381723E-03 -1.62373997E-03
 -1.38719597E-05  0.00000000E+00 -3.64230935E-03  3.03071638E-04  1.92147213E-05
  0.00000000E+00 -1.89319922E-03  1.81745526E-03 -1.96939768E-05  0.00000000E+00
 -3.46250365E-04  0.00000000E+00  0.00000000E+00  8.53284140E-04 -1.14069978E-04
  2.29692571E-01  1.89261929E-01  1.17879162E-04 -2.59211944E-04  0.00000000E+00
  7.35381723E-03 -7.99856515E-04  1.41313604E-03  0.00000000E+00 -3.64230934E-03
  1.34895383E-04 -2.72075099E-04  0.00000000E+00 -1.89319922E-03  9.25783112E-04
 -1.56411544E-03  0.00000000E+00 -3.46250365E-04  0.00000000E+00  0.00000000E+00
 -3.27854572E-04 -7.96000731E-04 -5.55205683E-05 -2.38039163E-03  3.36404406E-03
  1.15607030E-03  6.39093631E-04  1.20862800E-03  0.00000000E+00 -5.55205683E-05
 -2.38039163E-03  3.36404406E-03  1.15607030E-03  1.36624936E-03 -5.08426780E-05
  0.00000000E+00 -5.55205683E-05 -2.38039163E-03  3.36404406E-03  1.15607030E-03
  7.27155732E-04 -1.15778532E-03  0.00000000E+00 -5.55205683E-05 -2.38039163E-03
  3.36404406E-03  1.15607030E-03 -7.27155732E-04 -1.15778532E-03  0.00000000E+00
 -5.55205683E-05 -2.38039163E-03  3.36404406E-03  1.15607030E-03 -1.36624936E-03
 -5.08426780E-05  0.00000000E+00 -5.55205683E-05 -2.38039163E-03  3.36404406E-03
  1.15607030E-03 -6.39093631E-04  1.20862800E-03  0.00000000E+00  2.86411518E-02
  2.34782381E-02  2.97085828E-04 -2.28923591E-04  0.00000000E+00  1.75262518E-03
 -1.87560731E-03  5.12432336E-04  0.00000000E+00  1.91113997E-03 -5.00859208E-04
 -2.05749142E-03  0.00000000E+00 -2.95397274E-02  7.08165053E-03  5.77107422E-04
  0.00000000E+00 -5.08306329E-05  0.00000000E+00  0.00000000E+00  8.52799584E-04
  4.87378357E-04  2.94562298E-01  2.42540931E-01 -1.66575614E-04 -1.33431263E-04
  0.00000000E+00  1.04302471E-02  6.63207838E-04 -1.65503978E-04  0.00000000E+00
 -5.78565136E-03  6.68772855E-04 -3.51334931E-04  0.00000000E+00 -9.60341107E-03
 -8.12181617E-03  1.49282039E-03  0.00000000E+00 -5.03823607E-04  0.00000000E+00
  0.00000000E+00  4.41971417E-04  9.89117820E-05  2.65921146E-01  2.19062693E-01
  3.79063616E-04  3.53796423E-04  0.00000000E+00  8.67762196E-03 -9.06648505E-04
 -1.85971025E-03  0.00000000E+00 -7.69679133E-03  2.17006163E-03 -1.86600932E-03
  0.00000000E+00  1.99363163E-02 -2.31269292E-03  1.27087319E-02  0.00000000E+00
 -4.52992974E-04  0.00000000E+00  0.00000000E+00  5.41836006E-04 -8.28159510E-04
 -2.65921146E-01 -2.19062693E-01  3.79063616E-04 -3.53796423E-04  0.00000000E+00
 -8.67762196E-03 -9.06648505E-04  1.85971025E-03  0.00000000E+00  7.69679133E-03
  2.17006163E-03  1.86600932E-03  0.00000000E+00 -1.99363163E-02 -2.31269292E-03
 -1.27087319E-02  0.00000000E+00  4.52992974E-04  0.00000000E+00  0.00000000E+00
 -5.41836006E-04 -8.28159510E-04 -2.94562298E-01 -2.42540931E-01 -1.66575614E-04
  1.33431263E-04  0.00000000E+00 -1.04302471E-02  6.63207838E-04  1.65503978E-04
  0.00000000E+00  5.78565136E-03  6.68772855E-04  3.51334931E-04  0.00000000E+00
  9.60341107E-03 -8.12181617E-03 -1.49282039E-03  0.00000000E+00  5.03823607E-04
  0.00000000E+00  0.00000000E+00 -4.41971417E-04  9.89117820E-05 -2.86411518E-02
 -2.34782381E-02  2.97085828E-04  2.28923591E-04  0.00000000E+00 -1.75262518E-03
 -1.87560731E-03 -5.12432336E-04  0.00000000E+00 -1.91113997E-03 -5.00859208E-04
  2.05749142E-03  0.00000000E+00  2.95397274E-02  7.08165053E-03 -5.77107422E-04