X=NO                                                                    
SP        RMP2-FC                                                     6-311++G(d,p)       
Number of atoms                            I               13
Info1-9                                    I   N=           9
          26          22           0           0           0         110
           1           2           1
Charge                                     I                0
Multiplicity                               I                1
Number of electrons                        I               56
Number of alpha electrons                  I               28
Number of beta electrons                   I               28
Number of basis functions                  I              211
Number of independent functions            I              211
Number of point charges in /Mol/           I                0
Number of translation vectors              I                0
Atomic numbers                             I   N=          13
           8           7           1           6           6           1
           6           1           6           6           1           6
           1
Nuclear charges                            R   N=          13
  8.00000000E+00  7.00000000E+00  1.00000000E+00  6.00000000E+00  6.00000000E+00
  1.00000000E+00  6.00000000E+00  1.00000000E+00  6.00000000E+00  6.00000000E+00
  1.00000000E+00  6.00000000E+00  1.00000000E+00
Current cartesian coordinates              R   N=          39
 -2.52073403E+00  4.54812861E+00  0.00000000E+00 -3.43480401E-01  3.82658770E+00
  0.00000000E+00  1.47163367E+00 -6.00284734E+00  0.00000000E+00  1.92500519E-16
  1.12687582E+00  0.00000000E+00 -1.99806602E+00 -6.09317625E-01  0.00000000E+00
 -3.92253855E+00  8.77985659E-02  0.00000000E+00 -1.45255311E+00 -3.17223602E+00
  0.00000000E+00 -2.97245417E+00 -4.54553779E+00  0.00000000E+00  1.06344149E+00
 -3.99497175E+00  0.00000000E+00  3.04398597E+00 -2.25745739E+00  0.00000000E+00
  4.98480652E+00 -2.90993069E+00  0.00000000E+00  2.51186744E+00  3.18711761E-01
  0.00000000E+00  3.99672731E+00  1.72974759E+00  0.00000000E+00
Force Field                                I                0
Int Atom Types                             I   N=          13
           0           0           0           0           0           0
           0           0           0           0           0           0
           0
MM charges                                 R   N=          13
  0.00000000E+00  0.00000000E+00  0.00000000E+00  0.00000000E+00  0.00000000E+00
  0.00000000E+00  0.00000000E+00  0.00000000E+00  0.00000000E+00  0.00000000E+00
  0.00000000E+00  0.00000000E+00  0.00000000E+00
Integer atomic weights                     I   N=          13
          16          14           1          12          12           1
          12           1          12          12           1          12
           1
Real atomic weights                        R   N=          13
  1.59949146E+01  1.40030740E+01  1.00782504E+00  1.20000000E+01  1.20000000E+01
  1.00782504E+00  1.20000000E+01  1.00782504E+00  1.20000000E+01  1.20000000E+01
  1.00782504E+00  1.20000000E+01  1.00782504E+00
Atom fragment info                         I   N=          13
           0           0           0           0           0           0
           0           0           0           0           0           0
           0
Atom residue num                           I   N=          13
           0           0           0           0           0           0
           0           0           0           0           0           0
           0
Nuclear spins                              I   N=          13
           0           2           1           0           0           1
           0           1           0           0           1           0
           1
Nuclear ZEff                               R   N=          13
 -5.60000000E+00 -4.55000000E+00 -1.00000000E+00 -3.60000000E+00 -3.60000000E+00
 -1.00000000E+00 -3.60000000E+00 -1.00000000E+00 -3.60000000E+00 -3.60000000E+00
 -1.00000000E+00 -3.60000000E+00 -1.00000000E+00
Nuclear QMom                               R   N=          13
  0.00000000E+00  2.04400000E+00  0.00000000E+00  0.00000000E+00  0.00000000E+00
  0.00000000E+00  0.00000000E+00  0.00000000E+00  0.00000000E+00  0.00000000E+00
  0.00000000E+00  0.00000000E+00  0.00000000E+00
Nuclear GFac                               R   N=          13
  0.00000000E+00  4.03761000E-01  2.79284600E+00  0.00000000E+00  0.00000000E+00
  2.79284600E+00  0.00000000E+00  2.79284600E+00  0.00000000E+00  0.00000000E+00
  2.79284600E+00  0.00000000E+00  2.79284600E+00
MicOpt                                     I   N=          13
          -1          -1          -1          -1          -1          -1
          -1          -1          -1          -1          -1          -1
          -1
Number of contracted shells                I               73
Number of primitive shells                 I              139
Pure/Cartesian d shells                    I                0
Pure/Cartesian f shells                    I                0
Highest angular momentum                   I                2
Largest degree of contraction              I                6
Shell types                                I   N=          73
           0          -1          -1          -1          -1          -2
           0          -1          -1          -1          -1          -2
           0           0           0           0           1           0
          -1          -1          -1          -1          -2           0
          -1          -1          -1          -1          -2           0
           0           0           0           1           0          -1
          -1          -1          -1          -2           0           0
           0           0           1           0          -1          -1
          -1          -1          -2           0          -1          -1
          -1          -1          -2           0           0           0
           0           1           0          -1          -1          -1
          -1          -2           0           0           0           0
           1
Number of primitives per shell             I   N=          73
           6           3           1           1           1           1
           6           3           1           1           1           1
           3           1           1           1           1           6
           3           1           1           1           1           6
           3           1           1           1           1           3
           1           1           1           1           6           3
           1           1           1           1           3           1
           1           1           1           6           3           1
           1           1           1           6           3           1
           1           1           1           3           1           1
           1           1           6           3           1           1
           1           1           3           1           1           1
           1
Shell to atom map                          I   N=          73
           1           1           1           1           1           1
           2           2           2           2           2           2
           3           3           3           3           3           4
           4           4           4           4           4           5
           5           5           5           5           5           6
           6           6           6           6           7           7
           7           7           7           7           8           8
           8           8           8           9           9           9
           9           9           9          10          10          10
          10          10          10          11          11          11
          11          11          12          12          12          12
          12          12          13          13          13          13
          13
Primitive exponents                        R   N=         139
  8.58850000E+03  1.29723000E+03  2.99296000E+02  8.73771000E+01  2.56789000E+01
  3.74004000E+00  4.21175000E+01  9.62837000E+00  2.85332000E+00  9.05661000E-01
  2.55611000E-01  8.45000000E-02  1.29200000E+00  6.29348000E+03  9.49044000E+02
  2.18776000E+02  6.36916000E+01  1.88282000E+01  2.72023000E+00  3.06331000E+01
  7.02614000E+00  2.11205000E+00  6.84009000E-01  2.00878000E-01  6.39000000E-02
  9.13000000E-01  3.38650000E+01  5.09479000E+00  1.15879000E+00  3.25840000E-01
  1.02741000E-01  3.60000000E-02  7.50000000E-01  4.56324000E+03  6.82024000E+02
  1.54973000E+02  4.44553000E+01  1.30290000E+01  1.82773000E+00  2.09642000E+01
  4.80331000E+00  1.45933000E+00  4.83456000E-01  1.45585000E-01  4.38000000E-02
  6.26000000E-01  4.56324000E+03  6.82024000E+02  1.54973000E+02  4.44553000E+01
  1.30290000E+01  1.82773000E+00  2.09642000E+01  4.80331000E+00  1.45933000E+00
  4.83456000E-01  1.45585000E-01  4.38000000E-02  6.26000000E-01  3.38650000E+01
  5.09479000E+00  1.15879000E+00  3.25840000E-01  1.02741000E-01  3.60000000E-02
  7.50000000E-01  4.56324000E+03  6.82024000E+02  1.54973000E+02  4.44553000E+01
  1.30290000E+01  1.82773000E+00  2.09642000E+01  4.80331000E+00  1.45933000E+00
  4.83456000E-01  1.45585000E-01  4.38000000E-02  6.26000000E-01  3.38650000E+01
  5.09479000E+00  1.15879000E+00  3.25840000E-01  1.02741000E-01  3.60000000E-02
  7.50000000E-01  4.56324000E+03  6.82024000E+02  1.54973000E+02  4.44553000E+01
  1.30290000E+01  1.82773000E+00  2.09642000E+01  4.80331000E+00  1.45933000E+00
  4.83456000E-01  1.45585000E-01  4.38000000E-02  6.26000000E-01  4.56324000E+03
  6.82024000E+02  1.54973000E+02  4.44553000E+01  1.30290000E+01  1.82773000E+00
  2.09642000E+01  4.80331000E+00  1.45933000E+00  4.83456000E-01  1.45585000E-01
  4.38000000E-02  6.26000000E-01  3.38650000E+01  5.09479000E+00  1.15879000E+00
  3.25840000E-01  1.02741000E-01  3.60000000E-02  7.50000000E-01  4.56324000E+03
  6.82024000E+02  1.54973000E+02  4.44553000E+01  1.30290000E+01  1.82773000E+00
  2.09642000E+01  4.80331000E+00  1.45933000E+00  4.83456000E-01  1.45585000E-01
  4.38000000E-02  6.26000000E-01  3.38650000E+01  5.09479000E+00  1.15879000E+00
  3.25840000E-01  1.02741000E-01  3.60000000E-02  7.50000000E-01
Contraction coefficients                   R   N=         139
  1.89515008E-03  1.43859006E-02  7.07320031E-02  2.40001011E-01  5.94797026E-01
  2.80802012E-01  1.13889012E-01  9.20811101E-01 -3.27447036E-03  1.00000000E+00
  1.00000000E+00  1.00000000E+00  1.00000000E+00  1.96978815E-03  1.49612859E-02
  7.35005308E-02  2.48936766E-01  6.02459433E-01  2.56201759E-01  1.11906080E-01
  9.21666655E-01 -2.56919183E-03  1.00000000E+00  1.00000000E+00  1.00000000E+00
  1.00000000E+00  2.54938145E-02  1.90373109E-01  8.52161486E-01  1.00000000E+00
  1.00000000E+00  1.00000000E+00  1.00000000E+00  1.96665025E-03  1.52306019E-02
  7.61269097E-02  2.60801033E-01  6.16462078E-01  2.21006028E-01  1.14660081E-01
  9.19999648E-01 -3.03068213E-03  1.00000000E+00  1.00000000E+00  1.00000000E+00
  1.00000000E+00  1.96665025E-03  1.52306019E-02  7.61269097E-02  2.60801033E-01
  6.16462078E-01  2.21006028E-01  1.14660081E-01  9.19999648E-01 -3.03068213E-03
  1.00000000E+00  1.00000000E+00  1.00000000E+00  1.00000000E+00  2.54938145E-02
  1.90373109E-01  8.52161486E-01  1.00000000E+00  1.00000000E+00  1.00000000E+00
  1.00000000E+00  1.96665025E-03  1.52306019E-02  7.61269097E-02  2.60801033E-01
  6.16462078E-01  2.21006028E-01  1.14660081E-01  9.19999648E-01 -3.03068213E-03
  1.00000000E+00  1.00000000E+00  1.00000000E+00  1.00000000E+00  2.54938145E-02
  1.90373109E-01  8.52161486E-01  1.00000000E+00  1.00000000E+00  1.00000000E+00
  1.00000000E+00  1.96665025E-03  1.52306019E-02  7.61269097E-02  2.60801033E-01
  6.16462078E-01  2.21006028E-01  1.14660081E-01  9.19999648E-01 -3.03068213E-03
  1.00000000E+00  1.00000000E+00  1.00000000E+00  1.00000000E+00  1.96665025E-03
  1.52306019E-02  7.61269097E-02  2.60801033E-01  6.16462078E-01  2.21006028E-01
  1.14660081E-01  9.19999648E-01 -3.03068213E-03  1.00000000E+00  1.00000000E+00
  1.00000000E+00  1.00000000E+00  2.54938145E-02  1.90373109E-01  8.52161486E-01
  1.00000000E+00  1.00000000E+00  1.00000000E+00  1.00000000E+00  1.96665025E-03
  1.52306019E-02  7.61269097E-02  2.60801033E-01  6.16462078E-01  2.21006028E-01
  1.14660081E-01  9.19999648E-01 -3.03068213E-03  1.00000000E+00  1.00000000E+00
  1.00000000E+00  1.00000000E+00  2.54938145E-02  1.90373109E-01  8.52161486E-01
  1.00000000E+00  1.00000000E+00  1.00000000E+00  1.00000000E+00
P(S=P) Contraction coefficients            R   N=         139
  0.00000000E+00  0.00000000E+00  0.00000000E+00  0.00000000E+00  0.00000000E+00
  0.00000000E+00  3.65113974E-02  2.37152983E-01  8.19701941E-01  1.00000000E+00
  1.00000000E+00  1.00000000E+00  0.00000000E+00  0.00000000E+00  0.00000000E+00
  0.00000000E+00  0.00000000E+00  0.00000000E+00  0.00000000E+00  3.83119186E-02
  2.37403116E-01  8.17592398E-01  1.00000000E+00  1.00000000E+00  1.00000000E+00
  0.00000000E+00  0.00000000E+00  0.00000000E+00  0.00000000E+00  0.00000000E+00
  0.00000000E+00  0.00000000E+00  0.00000000E+00  0.00000000E+00  0.00000000E+00
  0.00000000E+00  0.00000000E+00  0.00000000E+00  0.00000000E+00  4.02486927E-02
  2.37593957E-01  8.15853851E-01  1.00000000E+00  1.00000000E+00  1.00000000E+00
  0.00000000E+00  0.00000000E+00  0.00000000E+00  0.00000000E+00  0.00000000E+00
  0.00000000E+00  0.00000000E+00  4.02486927E-02  2.37593957E-01  8.15853851E-01
  1.00000000E+00  1.00000000E+00  1.00000000E+00  0.00000000E+00  0.00000000E+00
  0.00000000E+00  0.00000000E+00  0.00000000E+00  0.00000000E+00  0.00000000E+00
  0.00000000E+00  0.00000000E+00  0.00000000E+00  0.00000000E+00  0.00000000E+00
  0.00000000E+00  0.00000000E+00  4.02486927E-02  2.37593957E-01  8.15853851E-01
  1.00000000E+00  1.00000000E+00  1.00000000E+00  0.00000000E+00  0.00000000E+00
  0.00000000E+00  0.00000000E+00  0.00000000E+00  0.00000000E+00  0.00000000E+00
  0.00000000E+00  0.00000000E+00  0.00000000E+00  0.00000000E+00  0.00000000E+00
  0.00000000E+00  0.00000000E+00  4.02486927E-02  2.37593957E-01  8.15853851E-01
  1.00000000E+00  1.00000000E+00  1.00000000E+00  0.00000000E+00  0.00000000E+00
  0.00000000E+00  0.00000000E+00  0.00000000E+00  0.00000000E+00  0.00000000E+00
  4.02486927E-02  2.37593957E-01  8.15853851E-01  1.00000000E+00  1.00000000E+00
  1.00000000E+00  0.00000000E+00  0.00000000E+00  0.00000000E+00  0.00000000E+00
  0.00000000E+00  0.00000000E+00  0.00000000E+00  0.00000000E+00  0.00000000E+00
  0.00000000E+00  0.00000000E+00  0.00000000E+00  0.00000000E+00  0.00000000E+00
  4.02486927E-02  2.37593957E-01  8.15853851E-01  1.00000000E+00  1.00000000E+00
  1.00000000E+00  0.00000000E+00  0.00000000E+00  0.00000000E+00  0.00000000E+00
  0.00000000E+00  0.00000000E+00  0.00000000E+00  0.00000000E+00
Coordinates of each shell                  R   N=         219
 -2.52073434E+00  4.54812835E+00  0.00000000E+00 -2.52073434E+00  4.54812835E+00
  0.00000000E+00 -2.52073434E+00  4.54812835E+00  0.00000000E+00 -2.52073434E+00
  4.54812835E+00  0.00000000E+00 -2.52073434E+00  4.54812835E+00  0.00000000E+00
 -2.52073434E+00  4.54812835E+00  0.00000000E+00 -3.43480644E-01  3.82658764E+00
  0.00000000E+00 -3.43480644E-01  3.82658764E+00  0.00000000E+00 -3.43480644E-01
  3.82658764E+00  0.00000000E+00 -3.43480644E-01  3.82658764E+00  0.00000000E+00
 -3.43480644E-01  3.82658764E+00  0.00000000E+00 -3.43480644E-01  3.82658764E+00
  0.00000000E+00  1.47163432E+00 -6.00284724E+00  0.00000000E+00  1.47163432E+00
 -6.00284724E+00  0.00000000E+00  1.47163432E+00 -6.00284724E+00  0.00000000E+00
  1.47163432E+00 -6.00284724E+00  0.00000000E+00  1.47163432E+00 -6.00284724E+00
  0.00000000E+00  0.00000000E+00  1.12687578E+00  0.00000000E+00  0.00000000E+00
  1.12687578E+00  0.00000000E+00  0.00000000E+00  1.12687578E+00  0.00000000E+00
  0.00000000E+00  1.12687578E+00  0.00000000E+00  0.00000000E+00  1.12687578E+00
  0.00000000E+00  0.00000000E+00  1.12687578E+00  0.00000000E+00 -1.99806587E+00
 -6.09317838E-01  0.00000000E+00 -1.99806587E+00 -6.09317838E-01  0.00000000E+00
 -1.99806587E+00 -6.09317838E-01  0.00000000E+00 -1.99806587E+00 -6.09317838E-01
  0.00000000E+00 -1.99806587E+00 -6.09317838E-01  0.00000000E+00 -1.99806587E+00
 -6.09317838E-01  0.00000000E+00 -3.92253846E+00  8.77981797E-02  0.00000000E+00
 -3.92253846E+00  8.77981797E-02  0.00000000E+00 -3.92253846E+00  8.77981797E-02
  0.00000000E+00 -3.92253846E+00  8.77981797E-02  0.00000000E+00 -3.92253846E+00
  8.77981797E-02  0.00000000E+00 -1.45255272E+00 -3.17223618E+00  0.00000000E+00
 -1.45255272E+00 -3.17223618E+00  0.00000000E+00 -1.45255272E+00 -3.17223618E+00
  0.00000000E+00 -1.45255272E+00 -3.17223618E+00  0.00000000E+00 -1.45255272E+00
 -3.17223618E+00  0.00000000E+00 -1.45255272E+00 -3.17223618E+00  0.00000000E+00
 -2.97245366E+00 -4.54553809E+00  0.00000000E+00 -2.97245366E+00 -4.54553809E+00
  0.00000000E+00 -2.97245366E+00 -4.54553809E+00  0.00000000E+00 -2.97245366E+00
 -4.54553809E+00  0.00000000E+00 -2.97245366E+00 -4.54553809E+00  0.00000000E+00
  1.06344195E+00 -3.99497169E+00  0.00000000E+00  1.06344195E+00 -3.99497169E+00
  0.00000000E+00  1.06344195E+00 -3.99497169E+00  0.00000000E+00  1.06344195E+00
 -3.99497169E+00  0.00000000E+00  1.06344195E+00 -3.99497169E+00  0.00000000E+00
  1.06344195E+00 -3.99497169E+00  0.00000000E+00  3.04398628E+00 -2.25745715E+00
  0.00000000E+00  3.04398628E+00 -2.25745715E+00  0.00000000E+00  3.04398628E+00
 -2.25745715E+00  0.00000000E+00  3.04398628E+00 -2.25745715E+00  0.00000000E+00
  3.04398628E+00 -2.25745715E+00  0.00000000E+00  3.04398628E+00 -2.25745715E+00
  0.00000000E+00  4.98480688E+00 -2.90993028E+00  0.00000000E+00  4.98480688E+00
 -2.90993028E+00  0.00000000E+00  4.98480688E+00 -2.90993028E+00  0.00000000E+00
  4.98480688E+00 -2.90993028E+00  0.00000000E+00  4.98480688E+00 -2.90993028E+00
  0.00000000E+00  2.51186751E+00  3.18711953E-01  0.00000000E+00  2.51186751E+00
  3.18711953E-01  0.00000000E+00  2.51186751E+00  3.18711953E-01  0.00000000E+00
  2.51186751E+00  3.18711953E-01  0.00000000E+00  2.51186751E+00  3.18711953E-01
  0.00000000E+00  2.51186751E+00  3.18711953E-01  0.00000000E+00  3.99672725E+00
  1.72974791E+00  0.00000000E+00  3.99672725E+00  1.72974791E+00  0.00000000E+00
  3.99672725E+00  1.72974791E+00  0.00000000E+00  3.99672725E+00  1.72974791E+00
  0.00000000E+00  3.99672725E+00  1.72974791E+00  0.00000000E+00
Constraint Structure                       R   N=          39
 -2.52073434E+00  4.54812835E+00  0.00000000E+00 -3.43480644E-01  3.82658764E+00
  0.00000000E+00  1.47163432E+00 -6.00284724E+00  0.00000000E+00  0.00000000E+00
  1.12687578E+00  0.00000000E+00 -1.99806587E+00 -6.09317838E-01  0.00000000E+00
 -3.92253846E+00  8.77981797E-02  0.00000000E+00 -1.45255272E+00 -3.17223618E+00
  0.00000000E+00 -2.97245366E+00 -4.54553809E+00  0.00000000E+00  1.06344195E+00
 -3.99497169E+00  0.00000000E+00  3.04398628E+00 -2.25745715E+00  0.00000000E+00
  4.98480688E+00 -2.90993028E+00  0.00000000E+00  2.51186751E+00  3.18711953E-01
  0.00000000E+00  3.99672725E+00  1.72974791E+00  0.00000000E+00
Num ILSW                                   I              100
ILSW                                       I   N=         100
           0           0           0           0           2           0
           0           0           0           0           0          -1
           0           0           0           0           0           0
           0           0           0           0           0           0
           1           0           0           0           0           0
           0           0      100000           0          -1           0
           0           0           0           0           0           0
           0           0           0           1           0           0
           0           0           1           0           0           0
           0           0           4          40           0           0
           0           0           0           0           0           0
           0           0           0           0           0           0
           0           0           0           0           0           0
           0           0           0           0           0           0
           0           0           0           0           0           0
           0           0           0           0           0           0
           0           0           0           0
Num RLSW                                   I               40
RLSW                                       R   N=          40
  1.00000000E+00  1.00000000E+00  1.00000000E+00  1.00000000E+00  1.00000000E+00
  0.00000000E+00  0.00000000E+00  1.00000000E+00  0.00000000E+00  0.00000000E+00
  0.00000000E+00  0.00000000E+00  1.00000000E+00  0.00000000E+00  0.00000000E+00
  0.00000000E+00  0.00000000E+00  1.00000000E+00  0.00000000E+00  0.00000000E+00
  0.00000000E+00  0.00000000E+00  1.00000000E+00  0.00000000E+00  0.00000000E+00
  0.00000000E+00  0.00000000E+00  1.00000000E+00  0.00000000E+00  0.00000000E+00
  0.00000000E+00  0.00000000E+00  0.00000000E+00  0.00000000E+00  0.00000000E+00
  0.00000000E+00  0.00000000E+00  0.00000000E+00  1.00000000E+00  1.00000000E+00
MxBond                                     I                3
NBond                                      I   N=          13
           1           2           1           3           3           1
           3           1           3           3           1           3
           1
IBond                                      I   N=          39
           2           0           0           1           4           0
           9           0           0           2           5          12
           4           6           7           5           0           0
           5           8           9           7           0           0
           3           7          10           9          11          12
          10           0           0           4          10          13
          12           0           0
RBond                                      R   N=          39
  2.00000000E+00  0.00000000E+00  0.00000000E+00  2.00000000E+00  1.00000000E+00
  0.00000000E+00  1.00000000E+00  0.00000000E+00  0.00000000E+00  1.00000000E+00
  1.50000000E+00  1.50000000E+00  1.50000000E+00  1.00000000E+00  1.50000000E+00
  1.00000000E+00  0.00000000E+00  0.00000000E+00  1.50000000E+00  1.00000000E+00
  1.50000000E+00  1.00000000E+00  0.00000000E+00  0.00000000E+00  1.00000000E+00
  1.50000000E+00  1.50000000E+00  1.50000000E+00  1.00000000E+00  1.50000000E+00
  1.00000000E+00  0.00000000E+00  0.00000000E+00  1.50000000E+00  1.50000000E+00
  1.00000000E+00  1.00000000E+00  0.00000000E+00  0.00000000E+00
Virial Ratio                               R      2.001355802264909E+00
SCF Energy                                 R     -3.594297406518541E+02
MP2 Energy                                 R     -3.606181368475945E+02
Total Energy                               R     -3.606181368475945E+02
Post-SCF wavefunction norm                 R      1.190524011847880E+00
RMS Density                                R      7.340323506349946E-09
External E-field                           R   N=          35
  0.00000000E+00  0.00000000E+00  0.00000000E+00  0.00000000E+00  0.00000000E+00
  0.00000000E+00  0.00000000E+00  0.00000000E+00  0.00000000E+00  0.00000000E+00
  0.00000000E+00  0.00000000E+00  0.00000000E+00  0.00000000E+00  0.00000000E+00
  0.00000000E+00  0.00000000E+00  0.00000000E+00  0.00000000E+00  0.00000000E+00
  0.00000000E+00  0.00000000E+00  0.00000000E+00  0.00000000E+00  0.00000000E+00
  0.00000000E+00  0.00000000E+00  0.00000000E+00  0.00000000E+00  0.00000000E+00
  0.00000000E+00  0.00000000E+00  0.00000000E+00  0.00000000E+00  0.00000000E+00
IOpCl                                      I                0
IROHF                                      I                0
Alpha Orbital Energies                     R   N=         211
 -2.06237982E+01 -1.57041695E+01 -1.12829286E+01 -1.12686137E+01 -1.12684028E+01
 -1.12662553E+01 -1.12602608E+01 -1.12597066E+01 -1.51334607E+00 -1.18854629E+00
 -1.08716557E+00 -1.04493447E+00 -9.58023950E-01 -8.57140142E-01 -8.19052874E-01
 -7.42135954E-01 -6.90771310E-01 -6.82161203E-01 -6.38630803E-01 -6.18116778E-01
 -6.09599109E-01 -6.04425756E-01 -5.44594313E-01 -5.19409690E-01 -5.16622728E-01
 -4.08904959E-01 -3.62266169E-01 -3.60731597E-01  3.46426546E-02  3.68869946E-02
  4.42943101E-02  5.20381558E-02  6.74249354E-02  7.35528158E-02  9.31868541E-02
  1.13723677E-01  1.16773316E-01  1.36356804E-01  1.47002737E-01  1.47109353E-01
  1.55847464E-01  1.56462334E-01  1.70197269E-01  1.74089466E-01  1.76172079E-01
  1.85868917E-01  1.96907169E-01  2.03222577E-01  2.03523202E-01  2.04814469E-01
  2.07294545E-01  2.12824477E-01  2.13483790E-01  2.16439550E-01  2.42028005E-01
  2.50732912E-01  2.66692297E-01  2.67145077E-01  2.76407808E-01  2.84135756E-01
  2.97273462E-01  3.14108734E-01  3.21871103E-01  3.45802987E-01  3.49444689E-01
  3.74785681E-01  3.80327321E-01  3.86802259E-01  3.98684822E-01  4.13544144E-01
  4.17258513E-01  4.24967987E-01  4.34990867E-01  4.58155705E-01  4.74191144E-01
  4.90706061E-01  4.94672511E-01  5.30928484E-01  5.69391511E-01  6.22838909E-01
  6.52828427E-01  6.90639250E-01  6.93217917E-01  7.04223988E-01  7.13898142E-01
  7.24737323E-01  7.36565634E-01  7.41618981E-01  7.47187781E-01  7.96840910E-01
  7.98041570E-01  8.00663237E-01  8.03777743E-01  8.70675808E-01  8.94213945E-01
  9.23139571E-01  9.30697262E-01  9.44750289E-01  9.73745523E-01  9.84224216E-01
  1.01322200E+00  1.02200676E+00  1.04048100E+00  1.04324300E+00  1.06140915E+00
  1.08127141E+00  1.10325884E+00  1.10843219E+00  1.11502538E+00  1.14336696E+00
  1.17154235E+00  1.18344390E+00  1.20467001E+00  1.22071895E+00  1.23262895E+00
  1.29549150E+00  1.31868037E+00  1.33588795E+00  1.37090319E+00  1.37160824E+00
  1.43129933E+00  1.45738449E+00  1.48145058E+00  1.56094742E+00  1.66370766E+00
  1.70719888E+00  1.76211845E+00  1.78196270E+00  1.80849039E+00  1.81482773E+00
  1.81691132E+00  1.84362389E+00  1.86816250E+00  1.89258845E+00  1.90235958E+00
  1.97775742E+00  1.99012537E+00  2.02807041E+00  2.04059175E+00  2.09267900E+00
  2.09614538E+00  2.14697576E+00  2.18936118E+00  2.19709964E+00  2.20638495E+00
  2.22147310E+00  2.24271943E+00  2.25503602E+00  2.26353682E+00  2.30272833E+00
  2.33510715E+00  2.36182357E+00  2.38557921E+00  2.47990299E+00  2.64205001E+00
  2.66554664E+00  2.68432767E+00  2.73043908E+00  2.76667767E+00  2.78644115E+00
  2.81618459E+00  2.87021090E+00  2.93857402E+00  2.97253573E+00  2.99319465E+00
  3.00188922E+00  3.01621227E+00  3.02969560E+00  3.03524726E+00  3.04241357E+00
  3.09073623E+00  3.13811560E+00  3.16897837E+00  3.20643902E+00  3.21550349E+00
  3.21971570E+00  3.27119366E+00  3.28386342E+00  3.29079063E+00  3.31325756E+00
  3.45723097E+00  3.55914456E+00  3.64855111E+00  3.68734755E+00  3.74174518E+00
  3.79640612E+00  3.86057839E+00  3.90089761E+00  3.90201431E+00  4.01465674E+00
  4.09633144E+00  4.20483853E+00  4.31436861E+00  4.38855725E+00  4.43593753E+00
  4.54804685E+00  4.55333804E+00  4.75202355E+00  5.25110682E+00  5.25850124E+00
  5.53624655E+00  5.67864048E+00  6.49425951E+00  2.47214551E+01  2.50903494E+01
  2.50994432E+01  2.52043910E+01  2.52456103E+01  2.53362512E+01  3.68855406E+01
  5.16098068E+01
Alpha MO coefficients                      R   N=       44521
  5.51522791E-01  4.71715198E-01  1.76182994E-03 -7.53659868E-04  0.00000000E+00
  5.35413878E-03 -7.65536701E-04  3.25816128E-04  0.00000000E+00 -1.17521135E-03
  3.05866008E-04 -1.43984349E-04  0.00000000E+00  4.13072151E-03  5.93005372E-04
 -2.78335355E-04  0.00000000E+00 -1.97250033E-04  0.00000000E+00  0.00000000E+00
 -1.51534369E-04  1.22981228E-04  3.05202187E-05 -4.00874023E-05 -4.88363145E-05
  3.01442856E-07  0.00000000E+00  2.16116303E-04 -3.83934582E-04  1.63322540E-04
  0.00000000E+00  8.68530161E-05 -2.69720218E-05 -1.11125188E-04  0.00000000E+00
 -4.38556796E-03  1.45274682E-03 -1.58952717E-04  0.00000000E+00 -6.87596107E-05
  0.00000000E+00  0.00000000E+00  1.81962072E-04 -1.02526992E-04  9.31183939E-07
  4.14166804E-06  2.48005942E-06  1.03724651E-04  1.40260526E-06  1.18236967E-06
  0.00000000E+00  1.40615431E-06  2.71919557E-06  5.35756930E-07 -1.57195631E-05
  0.00000000E+00 -2.70022306E-05  4.19665947E-06  4.10709490E-05  0.00000000E+00
  2.04428168E-05  3.13070816E-04 -1.50546836E-04  0.00000000E+00  6.80944932E-03
  3.79373708E-03  1.61989581E-03  0.00000000E+00  1.35594294E-06  0.00000000E+00
  0.00000000E+00 -4.36674174E-05  8.56685198E-07  3.84387499E-07 -1.16761404E-07
 -4.88190482E-07 -1.13981830E-06  0.00000000E+00  9.74090642E-07  1.12604354E-05
  8.54689569E-06  0.00000000E+00  1.72330276E-04  1.42088672E-05  1.28890893E-04
  0.00000000E+00  5.88806991E-03  1.10817018E-03  1.14873659E-04  0.00000000E+00
  1.32689610E-06  0.00000000E+00  0.00000000E+00 -9.04018464E-06  1.36235060E-05
  9.68882854E-06 -4.49821348E-05  2.38976108E-05  2.74967221E-04  9.90892329E-07
 -1.51667364E-05  0.00000000E+00  1.66865156E-07 -7.68017258E-07 -7.21080247E-07
 -9.32682624E-07  0.00000000E+00  7.24538339E-06  2.98646232E-06  5.55200192E-06
  0.00000000E+00  8.77491099E-06 -7.24705104E-05 -2.26594571E-05  0.00000000E+00
 -4.47824265E-03 -9.25607589E-04 -3.82535993E-04  0.00000000E+00  1.86618694E-06
  0.00000000E+00  0.00000000E+00 -8.22271009E-07  3.96170938E-06  1.31527737E-06
 -1.39250374E-05 -4.69757104E-05 -2.76064596E-04 -1.75138050E-06 -1.47526605E-06
  0.00000000E+00  1.91097048E-07 -5.91221855E-07 -7.41557066E-07 -8.17960149E-07
  0.00000000E+00  2.01269984E-06  3.72758628E-06  6.53373326E-06  0.00000000E+00