 Entering Gaussian System, Link 0=g09
 Initial command:
 /apps/software//g09/l1.exe /scratch/itamar/1535.cluster.abaxnet/Gau-28411.inp -scrdir=/scratch/itamar/1535.cluster.abaxnet/
 Entering Link 1 = /apps/software//g09/l1.exe PID=     28412.
  
 Copyright (c) 1988,1990,1992,1993,1995,1998,2003,2009, Gaussian, Inc.
                  All Rights Reserved.
  
 This is part of the Gaussian(R) 09 program.  It is based on
 the Gaussian(R) 03 system (copyright 2003, Gaussian, Inc.),
 the Gaussian(R) 98 system (copyright 1998, Gaussian, Inc.),
 the Gaussian(R) 94 system (copyright 1995, Gaussian, Inc.),
 the Gaussian 92(TM) system (copyright 1992, Gaussian, Inc.),
 the Gaussian 90(TM) system (copyright 1990, Gaussian, Inc.),
 the Gaussian 88(TM) system (copyright 1988, Gaussian, Inc.),
 the Gaussian 86(TM) system (copyright 1986, Carnegie Mellon
 University), and the Gaussian 82(TM) system (copyright 1983,
 Carnegie Mellon University). Gaussian is a federally registered
 trademark of Gaussian, Inc.
  
 This software contains proprietary and confidential information,
 including trade secrets, belonging to Gaussian, Inc.
  
 This software is provided under written license and may be
 used, copied, transmitted, or stored only in accord with that
 written license.
  
 The following legend is applicable only to US Government
 contracts under FAR:
  
                    RESTRICTED RIGHTS LEGEND
  
 Use, reproduction and disclosure by the US Government is
 subject to restrictions as set forth in subparagraphs (a)
 and (c) of the Commercial Computer Software - Restricted
 Rights clause in FAR 52.227-19.
  
 Gaussian, Inc.
 340 Quinnipiac St., Bldg. 40, Wallingford CT 06492
  
  
 ---------------------------------------------------------------
 Warning -- This program may not be used in any manner that
 competes with the business of Gaussian, Inc. or will provide
 assistance to any competitor of Gaussian, Inc.  The licensee
 of this program is prohibited from giving any competitor of
 Gaussian, Inc. access to this program.  By using this program,
 the user acknowledges that Gaussian, Inc. is engaged in the
 business of creating and licensing software in the field of
 computational chemistry and represents and warrants to the
 licensee that it is not a competitor of Gaussian, Inc. and that
 it will not use this program in any manner prohibited above.
 ---------------------------------------------------------------
  

 Cite this work as:
 Gaussian 09, Revision A.02,
 M. J. Frisch, G. W. Trucks, H. B. Schlegel, G. E. Scuseria, 
 M. A. Robb, J. R. Cheeseman, G. Scalmani, V. Barone, B. Mennucci, 
 G. A. Petersson, H. Nakatsuji, M. Caricato, X. Li, H. P. Hratchian, 
 A. F. Izmaylov, J. Bloino, G. Zheng, J. L. Sonnenberg, M. Hada, 
 M. Ehara, K. Toyota, R. Fukuda, J. Hasegawa, M. Ishida, T. Nakajima, 
 Y. Honda, O. Kitao, H. Nakai, T. Vreven, J. A. Montgomery, Jr., 
 J. E. Peralta, F. Ogliaro, M. Bearpark, J. J. Heyd, E. Brothers, 
 K. N. Kudin, V. N. Staroverov, R. Kobayashi, J. Normand, 
 K. Raghavachari, A. Rendell, J. C. Burant, S. S. Iyengar, J. Tomasi, 
 M. Cossi, N. Rega, J. M. Millam, M. Klene, J. E. Knox, J. B. Cross, 
 V. Bakken, C. Adamo, J. Jaramillo, R. Gomperts, R. E. Stratmann, 
 O. Yazyev, A. J. Austin, R. Cammi, C. Pomelli, J. W. Ochterski, 
 R. L. Martin, K. Morokuma, V. G. Zakrzewski, G. A. Voth, 
 P. Salvador, J. J. Dannenberg, S. Dapprich, A. D. Daniels, 
 O. Farkas, J. B. Foresman, J. V. Ortiz, J. Cioslowski, 
 and D. J. Fox, Gaussian, Inc., Wallingford CT, 2009.
 
 ******************************************
 Gaussian 09:  EM64L-G09RevA.02 11-Jun-2009
                25-Nov-2021 
 ******************************************
 %Mem=3800MB
 %NProcShared=6
 Will use up to    6 processors via shared memory.
 %chk=/home/itamar/Aromaticity-test-set/T13-old-T15-Diels-Alder-TS/da-ts.chk
 --------------------
 #P CCSD-T/6-311++G**
 --------------------
 1/38=1/1;
 2/12=2,17=6,18=5,40=1/2;
 3/5=4,6=6,7=1111,11=9,16=1,25=1,30=1/1,2,3;
 4//1;
 5/5=2,38=5/2;
 8/6=4,9=120000,10=2/1,4;
 9/5=7,14=2/13;
 6/7=2,8=2,9=2,10=2/1;
 99/5=1,9=1/99;
 Leave Link    1 at Thu Nov 25 13:06:44 2021, MaxMem=  498073600 cpu:       0.3
 (Enter /apps/software//g09/l101.exe)
 ----
 14-H
 ----
 Symbolic Z-matrix:
 Charge =  0 Multiplicity = 1
 6                    -0.42695   1.43299   0.49632 
 6                    -0.42716  -1.43313   0.49637 
 6                    -1.3238    0.70118  -0.26239 
 6                    -1.32384  -0.70115  -0.26235 
 6                     1.55644   0.69431  -0.25717 
 6                     1.55697  -0.69422  -0.25732 
 1                    -0.37464   2.50994   0.378 
 1                    -0.09441   1.06876   1.45899 
 1                    -0.375    -2.51011   0.37807 
 1                    -0.09425  -1.06888   1.4589 
 1                    -1.89163   1.2117   -1.0352 
 1                    -1.89176  -1.21159  -1.03515 
 1                     2.07828   1.23064   0.52664 
 1                     1.44404   1.23373  -1.18804 
 1                     2.07874  -1.23048   0.52653 
 1                     1.44451  -1.23368  -1.18814 
 
 NAtoms=     16 NQM=     16 NQMF=      0 NMic=      0 NMicF=      0 NTot=     16.
                    Isotopes and Nuclear Properties:
 (Nuclear quadrupole moments (NQMom) in fm**2, nuclear magnetic moments (NMagM)
  in nuclear magnetons)

  Atom         1           2           3           4           5           6           7           8           9          10
 IAtWgt=          12          12          12          12          12          12           1           1           1           1
 AtmWgt=  12.0000000  12.0000000  12.0000000  12.0000000  12.0000000  12.0000000   1.0078250   1.0078250   1.0078250   1.0078250
 NucSpn=           0           0           0           0           0           0           1           1           1           1
 AtZEff=   0.0000000   0.0000000   0.0000000   0.0000000   0.0000000   0.0000000   0.0000000   0.0000000   0.0000000   0.0000000
 NQMom=    0.0000000   0.0000000   0.0000000   0.0000000   0.0000000   0.0000000   0.0000000   0.0000000   0.0000000   0.0000000
 NMagM=    0.0000000   0.0000000   0.0000000   0.0000000   0.0000000   0.0000000   2.7928460   2.7928460   2.7928460   2.7928460

  Atom        11          12          13          14          15          16
 IAtWgt=           1           1           1           1           1           1
 AtmWgt=   1.0078250   1.0078250   1.0078250   1.0078250   1.0078250   1.0078250
 NucSpn=           1           1           1           1           1           1
 AtZEff=   0.0000000   0.0000000   0.0000000   0.0000000   0.0000000   0.0000000
 NQMom=    0.0000000   0.0000000   0.0000000   0.0000000   0.0000000   0.0000000
 NMagM=    2.7928460   2.7928460   2.7928460   2.7928460   2.7928460   2.7928460
 Leave Link  101 at Thu Nov 25 13:06:44 2021, MaxMem=  498073600 cpu:       0.2
 (Enter /apps/software//g09/l202.exe)
                          Input orientation:                          
 ---------------------------------------------------------------------
 Center     Atomic      Atomic             Coordinates (Angstroms)
 Number     Number       Type             X           Y           Z
 ---------------------------------------------------------------------
      1          6           0       -0.426946    1.432986    0.496319
      2          6           0       -0.427164   -1.433129    0.496368
      3          6           0       -1.323801    0.701175   -0.262393
      4          6           0       -1.323835   -0.701151   -0.262354
      5          6           0        1.556444    0.694313   -0.257168
      6          6           0        1.556966   -0.694220   -0.257321
      7          1           0       -0.374636    2.509940    0.377999
      8          1           0       -0.094413    1.068759    1.458987
      9          1           0       -0.374996   -2.510113    0.378071
     10          1           0       -0.094247   -1.068877    1.458896
     11          1           0       -1.891630    1.211696   -1.035200
     12          1           0       -1.891764   -1.211594   -1.035148
     13          1           0        2.078276    1.230638    0.526642
     14          1           0        1.444038    1.233732   -1.188035
     15          1           0        2.078743   -1.230482    0.526531
     16          1           0        1.444506   -1.233676   -1.188135
 ---------------------------------------------------------------------
                    Distance matrix (angstroms):
                    1          2          3          4          5
     1  C    0.000000
     2  C    2.866115   0.000000
     3  C    1.384030   2.436171   0.000000
     4  C    2.436090   1.384005   1.402326   0.000000
     5  C    2.246601   3.004751   2.880258   3.200524   0.000000
     6  C    3.004810   2.247400   3.200933   2.880814   1.388533
     7  H    1.084696   3.945195   2.140712   3.409125   2.725621
     8  H    1.081651   2.701259   2.147012   2.758093   2.410545
     9  H    3.945214   1.084717   3.409222   2.140744   3.795041
    10  H    2.701215   1.081653   2.758210   2.147047   2.962853
    11  H    2.130685   3.389021   1.086413   2.139782   3.572427
    12  H    3.388936   2.130651   2.139724   1.086419   4.015952
    13  H    2.513563   3.657021   3.532285   3.991075   1.083656
    14  H    2.525338   3.667528   2.966709   3.501682   1.081721
    15  H    3.656973   2.514268   3.991366   3.532714   2.142852
    16  H    3.667534   2.525961   3.502024   2.967215   2.143915
                    6          7          8          9         10
     6  C    0.000000
     7  H    3.794912   0.000000
     8  H    2.963252   1.823201   0.000000
     9  H    2.726475   5.020053   3.749057   0.000000
    10  H    2.410866   3.748985   2.137636   1.823229   0.000000
    11  H    4.016270   2.446189   3.077562   4.260208   3.827808
    12  H    3.573014   4.260103   3.827687   2.446206   3.077611
    13  H    2.142765   2.770467   2.369821   4.475917   3.297988
    14  H    2.143824   2.718225   3.066068   4.447241   3.830740
    15  H    1.083629   4.475700   3.298271   2.771341   2.370086
    16  H    1.081700   4.447102   3.831023   2.718985   3.066218
                   11         12         13         14         15
    11  H    0.000000
    12  H    2.423290   0.000000
    13  H    4.266130   4.915781   0.000000
    14  H    3.339240   4.138909   1.828219   0.000000
    15  H    4.916004   4.266629   2.461120   3.068377   0.000000
    16  H    4.139207   3.339849   3.068382   2.467408   1.828208
                   16
    16  H    0.000000
 Stoichiometry    C6H10
 Framework group  C1[X(C6H10)]
 Deg. of freedom    42
 Full point group                 C1      NOp   1
 Largest Abelian subgroup         C1      NOp   1
 Largest concise Abelian subgroup C1      NOp   1
                         Standard orientation:                         
 ---------------------------------------------------------------------
 Center     Atomic      Atomic             Coordinates (Angstroms)
 Number     Number       Type             X           Y           Z
 ---------------------------------------------------------------------
      1          6           0        0.435761   -1.433013    0.488380
      2          6           0        0.436195    1.433102    0.488377
      3          6           0        1.318564   -0.701281   -0.286712
      4          6           0        1.318704    0.701045   -0.286697
      5          6           0       -1.561097   -0.694203   -0.228511
      6          6           0       -1.561518    0.694330   -0.228678
      7          1           0        0.381203   -2.509965    0.371060
      8          1           0        0.121018   -1.068747    1.456995
      9          1           0        0.381941    2.510088    0.371042
     10          1           0        0.121011    1.068889    1.456872
     11          1           0        1.872045   -1.211857   -1.069824
     12          1           0        1.872361    1.211433   -1.069814
     13          1           0       -2.068464   -1.230477    0.564773
     14          1           0       -1.465872   -1.233644   -1.161279
     15          1           0       -2.068749    1.230643    0.564630
     16          1           0       -1.466157    1.233764   -1.161412
 ---------------------------------------------------------------------
 Rotational constants (GHZ):      4.3619574      3.5034349      2.2778813
 Leave Link  202 at Thu Nov 25 13:06:44 2021, MaxMem=  498073600 cpu:       0.0
 (Enter /apps/software//g09/l301.exe)
 Standard basis: 6-311++G(d,p) (5D, 7F)
 Ernie: Thresh=  0.10000D-02 Tol=  0.10000D-05 Strict=F.
 There are   202 symmetry adapted basis functions of A   symmetry.
 Integral buffers will be    131072 words long.
 Raffenetti 1 integral format.
 Two-electron integral symmetry is turned on.
   202 basis functions,   306 primitive gaussians,   208 cartesian basis functions
    23 alpha electrons       23 beta electrons
       nuclear repulsion energy       224.7329007378 Hartrees.
 IExCor=    0 DFT=F Ex=HF Corr=None ExCW=0 ScaHFX=  1.000000
 ScaDFX=  1.000000  1.000000  1.000000  1.000000 ScalE2=  1.000000  1.000000
 IRadAn=      0 IRanWt=     -1 IRanGd=            0 ICorTp=0
 NAtoms=   16 NActive=   16 NUniq=   16 SFac= 7.50D-01 NAtFMM=   80 NAOKFM=F Big=F
 Leave Link  301 at Thu Nov 25 13:06:44 2021, MaxMem=  498073600 cpu:       0.2
 (Enter /apps/software//g09/l302.exe)
 NPDir=0 NMtPBC=     1 NCelOv=     1 NCel=       1 NClECP=     1 NCelD=      1
         NCelK=      1 NCelE2=     1 NClLst=     1 CellRange=     0.0.
 One-electron integrals computed using PRISM.
 NBasis=   202 RedAO= T  NBF=   202
 NBsUse=   202 1.00D-06 NBFU=   202
 Leave Link  302 at Thu Nov 25 13:06:45 2021, MaxMem=  498073600 cpu:       1.8
 (Enter /apps/software//g09/l303.exe)
 DipDrv:  MaxL=1.
 Leave Link  303 at Thu Nov 25 13:06:45 2021, MaxMem=  498073600 cpu:       0.2
 (Enter /apps/software//g09/l401.exe)
 Harris functional with IExCor=  205 diagonalized for initial guess.
 ExpMin= 3.60D-02 ExpMax= 4.56D+03 ExpMxC= 6.82D+02 IAcc=3 IRadAn=         0 AccDes= 0.00D+00
 HarFok:  IExCor=  205 AccDes= 0.00D+00 IRadAn=         0 IDoV= 1
 ScaDFX=  1.000000  1.000000  1.000000  1.000000
 FoFCou: FMM=F IPFlag=           0 FMFlag=      100000 FMFlg1=           0
         NFxFlg=           0 DoJE=T BraDBF=F KetDBF=T FulRan=T
         Omega=  0.000000  0.000000  1.000000  0.000000  0.000000 ICntrl=     500 IOpCl=  0
         NMat0=    1 NMatS0=    1 NMatT0=    0 NMatD0=    1 NMtDS0=    0 NMtDT0=    0
         I1Cent=           4 NGrid=           0.
 Petite list used in FoFCou.
 Harris En= -233.516436140634    
 Initial guess orbital symmetries:
       Occupied  (A) (A) (A) (A) (A) (A) (A) (A) (A) (A) (A) (A)
                 (A) (A) (A) (A) (A) (A) (A) (A) (A) (A) (A)
       Virtual   (A) (A) (A) (A) (A) (A) (A) (A) (A) (A) (A) (A)
                 (A) (A) (A) (A) (A) (A) (A) (A) (A) (A) (A) (A)
                 (A) (A) (A) (A) (A) (A) (A) (A) (A) (A) (A) (A)
                 (A) (A) (A) (A) (A) (A) (A) (A) (A) (A) (A) (A)
                 (A) (A) (A) (A) (A) (A) (A) (A) (A) (A) (A) (A)
                 (A) (A) (A) (A) (A) (A) (A) (A) (A) (A) (A) (A)
                 (A) (A) (A) (A) (A) (A) (A) (A) (A) (A) (A) (A)
                 (A) (A) (A) (A) (A) (A) (A) (A) (A) (A) (A) (A)
                 (A) (A) (A) (A) (A) (A) (A) (A) (A) (A) (A) (A)
                 (A) (A) (A) (A) (A) (A) (A) (A) (A) (A) (A) (A)
                 (A) (A) (A) (A) (A) (A) (A) (A) (A) (A) (A) (A)
                 (A) (A) (A) (A) (A) (A) (A) (A) (A) (A) (A) (A)
                 (A) (A) (A) (A) (A) (A) (A) (A) (A) (A) (A) (A)
                 (A) (A) (A) (A) (A) (A) (A) (A) (A) (A) (A) (A)
                 (A) (A) (A) (A) (A) (A) (A) (A) (A) (A) (A)
 The electronic state of the initial guess is 1-A.
 Leave Link  401 at Thu Nov 25 13:06:46 2021, MaxMem=  498073600 cpu:       6.3
 (Enter /apps/software//g09/l502.exe)
 Closed shell SCF:
 Requested convergence on RMS density matrix=1.00D-08 within 128 cycles.
 Requested convergence on MAX density matrix=1.00D-06.
 Requested convergence on             energy=1.00D-06.
 No special actions if energy rises.
 Using DIIS extrapolation, IDIIS=  1040.
 Integral symmetry usage will be decided dynamically.
 Keep R1 ints in memory in canonical form, NReq=240953044.
 IEnd=      150754 IEndB=      150754 NGot=   498073600 MDV=   261745215
 LenX=   261745215 LenY=   261701510
 Symmetry not used in FoFDir.
 MinBra= 0 MaxBra= 2 Meth= 1.
 IRaf=       0 NMat=   1 IRICut=       1 DoRegI=T DoRafI=F ISym2E= 0 JSym2E=0.

 Cycle   1  Pass 1  IDiag  1:
 E= -232.578820506529    
 DIIS: error= 4.53D-02 at cycle   1 NSaved=   1.
 NSaved= 1 IEnMin= 1 EnMin= -232.578820506529     IErMin= 1 ErrMin= 4.53D-02
 ErrMax= 4.53D-02 EMaxC= 1.00D-01 BMatC= 5.74D-01 BMatP= 5.74D-01
 IDIUse=3 WtCom= 5.47D-01 WtEn= 4.53D-01
 Coeff-Com:  0.100D+01
 Coeff-En:   0.100D+01
 Coeff:      0.100D+01
 Gap=     0.435 Goal=   None    Shift=    0.000
 GapD=    0.435 DampG=2.000 DampE=0.500 DampFc=1.0000 IDamp=-1.
 RMSDP=8.83D-03 MaxDP=3.31D-01              OVMax= 1.74D-01

 Cycle   2  Pass 1  IDiag  1:
 E= -232.875773837411     Delta-E=       -0.296953330882 Rises=F Damp=F
 DIIS: error= 2.22D-02 at cycle   2 NSaved=   2.
 NSaved= 2 IEnMin= 2 EnMin= -232.875773837411     IErMin= 2 ErrMin= 2.22D-02
 ErrMax= 2.22D-02 EMaxC= 1.00D-01 BMatC= 6.54D-02 BMatP= 5.74D-01
 IDIUse=3 WtCom= 7.78D-01 WtEn= 2.22D-01
 Coeff-Com:  0.186D+00 0.814D+00
 Coeff-En:   0.000D+00 0.100D+01
 Coeff:      0.145D+00 0.855D+00
 Gap=     0.389 Goal=   None    Shift=    0.000
 RMSDP=5.98D-03 MaxDP=2.07D-01 DE=-2.97D-01 OVMax= 7.29D-02

 Cycle   3  Pass 1  IDiag  1:
 E= -232.934685178616     Delta-E=       -0.058911341205 Rises=F Damp=F
 DIIS: error= 5.40D-03 at cycle   3 NSaved=   3.
 NSaved= 3 IEnMin= 3 EnMin= -232.934685178616     IErMin= 3 ErrMin= 5.40D-03
 ErrMax= 5.40D-03 EMaxC= 1.00D-01 BMatC= 6.06D-03 BMatP= 6.54D-02
 IDIUse=3 WtCom= 9.46D-01 WtEn= 5.40D-02
 Coeff-Com: -0.185D-01 0.203D+00 0.815D+00
 Coeff-En:   0.000D+00 0.000D+00 0.100D+01
 Coeff:     -0.175D-01 0.193D+00 0.825D+00
 Gap=     0.350 Goal=   None    Shift=    0.000
 RMSDP=1.02D-03 MaxDP=3.04D-02 DE=-5.89D-02 OVMax= 1.70D-02

 Cycle   4  Pass 1  IDiag  1:
 E= -232.940805571096     Delta-E=       -0.006120392480 Rises=F Damp=F
 DIIS: error= 7.57D-04 at cycle   4 NSaved=   4.
 NSaved= 4 IEnMin= 4 EnMin= -232.940805571096     IErMin= 4 ErrMin= 7.57D-04
 ErrMax= 7.57D-04 EMaxC= 1.00D-01 BMatC= 6.31D-05 BMatP= 6.06D-03
 IDIUse=3 WtCom= 9.92D-01 WtEn= 7.57D-03
 Coeff-Com: -0.394D-02-0.146D-02 0.600D-01 0.945D+00
 Coeff-En:   0.000D+00 0.000D+00 0.000D+00 0.100D+01
 Coeff:     -0.391D-02-0.145D-02 0.595D-01 0.946D+00
 Gap=     0.349 Goal=   None    Shift=    0.000
 RMSDP=2.25D-04 MaxDP=7.30D-03 DE=-6.12D-03 OVMax= 4.11D-03

 Cycle   5  Pass 1  IDiag  1:
 E= -232.940925147763     Delta-E=       -0.000119576668 Rises=F Damp=F
 DIIS: error= 3.75D-04 at cycle   5 NSaved=   5.
 NSaved= 5 IEnMin= 5 EnMin= -232.940925147763     IErMin= 5 ErrMin= 3.75D-04
 ErrMax= 3.75D-04 EMaxC= 1.00D-01 BMatC= 6.91D-06 BMatP= 6.31D-05
 IDIUse=3 WtCom= 9.96D-01 WtEn= 3.75D-03
 Coeff-Com:  0.160D-02-0.130D-01-0.625D-01-0.131D+00 0.121D+01
 Coeff-En:   0.000D+00 0.000D+00 0.000D+00 0.000D+00 0.100D+01
 Coeff:      0.159D-02-0.129D-01-0.623D-01-0.131D+00 0.120D+01
 Gap=     0.349 Goal=   None    Shift=    0.000
 RMSDP=1.01D-04 MaxDP=3.19D-03 DE=-1.20D-04 OVMax= 3.16D-03

 Cycle   6  Pass 1  IDiag  1:
 E= -232.940954177942     Delta-E=       -0.000029030179 Rises=F Damp=F
 DIIS: error= 1.69D-04 at cycle   6 NSaved=   6.
 NSaved= 6 IEnMin= 6 EnMin= -232.940954177942     IErMin= 6 ErrMin= 1.69D-04
 ErrMax= 1.69D-04 EMaxC= 1.00D-01 BMatC= 1.15D-06 BMatP= 6.91D-06
 IDIUse=3 WtCom= 9.98D-01 WtEn= 1.69D-03
 Coeff-Com:  0.351D-03-0.741D-03-0.772D-02-0.719D-01 0.615D-01 0.102D+01
 Coeff-En:   0.000D+00 0.000D+00 0.000D+00 0.000D+00 0.000D+00 0.100D+01
 Coeff:      0.351D-03-0.739D-03-0.771D-02-0.718D-01 0.614D-01 0.102D+01
 Gap=     0.349 Goal=   None    Shift=    0.000
 RMSDP=3.43D-05 MaxDP=9.52D-04 DE=-2.90D-05 OVMax= 1.78D-03

 Cycle   7  Pass 1  IDiag  1:
 E= -232.940960335139     Delta-E=       -0.000006157197 Rises=F Damp=F
 DIIS: error= 1.21D-04 at cycle   7 NSaved=   7.
 NSaved= 7 IEnMin= 7 EnMin= -232.940960335139     IErMin= 7 ErrMin= 1.21D-04
 ErrMax= 1.21D-04 EMaxC= 1.00D-01 BMatC= 3.99D-07 BMatP= 1.15D-06
 IDIUse=3 WtCom= 9.99D-01 WtEn= 1.21D-03
 Coeff-Com: -0.445D-03 0.400D-02 0.180D-01 0.302D-01-0.338D+00 0.275D-01
 Coeff-Com:  0.126D+01
 Coeff-En:   0.000D+00 0.000D+00 0.000D+00 0.000D+00 0.000D+00 0.000D+00
 Coeff-En:   0.100D+01
 Coeff:     -0.444D-03 0.400D-02 0.180D-01 0.302D-01-0.338D+00 0.274D-01
 Coeff:      0.126D+01
 Gap=     0.349 Goal=   None    Shift=    0.000
 RMSDP=2.75D-05 MaxDP=8.22D-04 DE=-6.16D-06 OVMax= 1.40D-03

 Cycle   8  Pass 1  IDiag  1:
 E= -232.940963209400     Delta-E=       -0.000002874261 Rises=F Damp=F
 DIIS: error= 4.18D-05 at cycle   8 NSaved=   8.
 NSaved= 8 IEnMin= 8 EnMin= -232.940963209400     IErMin= 8 ErrMin= 4.18D-05
 ErrMax= 4.18D-05 EMaxC= 1.00D-01 BMatC= 6.07D-08 BMatP= 3.99D-07
 IDIUse=1 WtCom= 1.00D+00 WtEn= 0.00D+00
 Coeff-Com: -0.106D-03 0.477D-03 0.244D-02 0.160D-01-0.137D-01-0.249D+00
 Coeff-Com: -0.683D-02 0.125D+01
 Coeff:     -0.106D-03 0.477D-03 0.244D-02 0.160D-01-0.137D-01-0.249D+00
 Coeff:     -0.683D-02 0.125D+01
 Gap=     0.349 Goal=   None    Shift=    0.000
 RMSDP=1.19D-05 MaxDP=2.72D-04 DE=-2.87D-06 OVMax= 7.98D-04

 Cycle   9  Pass 1  IDiag  1:
 E= -232.940963717462     Delta-E=       -0.000000508062 Rises=F Damp=F
 DIIS: error= 8.56D-06 at cycle   9 NSaved=   9.
 NSaved= 9 IEnMin= 9 EnMin= -232.940963717462     IErMin= 9 ErrMin= 8.56D-06
 ErrMax= 8.56D-06 EMaxC= 1.00D-01 BMatC= 6.90D-09 BMatP= 6.07D-08
 IDIUse=1 WtCom= 1.00D+00 WtEn= 0.00D+00
 Coeff-Com:  0.324D-04-0.348D-03-0.166D-02-0.218D-02 0.403D-01-0.413D-01
 Coeff-Com: -0.156D+00 0.220D+00 0.942D+00
 Coeff:      0.324D-04-0.348D-03-0.166D-02-0.218D-02 0.403D-01-0.413D-01
 Coeff:     -0.156D+00 0.220D+00 0.942D+00
 Gap=     0.349 Goal=   None    Shift=    0.000
 RMSDP=2.18D-06 MaxDP=5.62D-05 DE=-5.08D-07 OVMax= 1.34D-04

 Cycle  10  Pass 1  IDiag  1:
 E= -232.940963744487     Delta-E=       -0.000000027026 Rises=F Damp=F
 DIIS: error= 2.99D-06 at cycle  10 NSaved=  10.
 NSaved=10 IEnMin=10 EnMin= -232.940963744487     IErMin=10 ErrMin= 2.99D-06
 ErrMax= 2.99D-06 EMaxC= 1.00D-01 BMatC= 7.25D-10 BMatP= 6.90D-09
 IDIUse=1 WtCom= 1.00D+00 WtEn= 0.00D+00
 Coeff-Com:  0.189D-04-0.113D-03-0.548D-03-0.297D-02 0.760D-02 0.292D-01
 Coeff-Com: -0.238D-01-0.139D+00 0.811D-01 0.105D+01
 Coeff:      0.189D-04-0.113D-03-0.548D-03-0.297D-02 0.760D-02 0.292D-01
 Coeff:     -0.238D-01-0.139D+00 0.811D-01 0.105D+01
 Gap=     0.349 Goal=   None    Shift=    0.000
 RMSDP=7.09D-07 MaxDP=1.09D-05 DE=-2.70D-08 OVMax= 4.98D-05

 Cycle  11  Pass 1  IDiag  1:
 E= -232.940963747548     Delta-E=       -0.000000003060 Rises=F Damp=F
 DIIS: error= 7.74D-07 at cycle  11 NSaved=  11.
 NSaved=11 IEnMin=11 EnMin= -232.940963747548     IErMin=11 ErrMin= 7.74D-07
 ErrMax= 7.74D-07 EMaxC= 1.00D-01 BMatC= 6.96D-11 BMatP= 7.25D-10
 IDIUse=1 WtCom= 1.00D+00 WtEn= 0.00D+00
 Coeff-Com: -0.448D-05 0.457D-04 0.226D-03 0.405D-03-0.477D-02 0.194D-02
 Coeff-Com:  0.189D-01-0.856D-02-0.131D+00-0.505D-01 0.117D+01
 Coeff:     -0.448D-05 0.457D-04 0.226D-03 0.405D-03-0.477D-02 0.194D-02
 Coeff:      0.189D-01-0.856D-02-0.131D+00-0.505D-01 0.117D+01
 Gap=     0.349 Goal=   None    Shift=    0.000
 RMSDP=1.97D-07 MaxDP=3.86D-06 DE=-3.06D-09 OVMax= 8.64D-06

 Cycle  12  Pass 1  IDiag  1:
 E= -232.940963747779     Delta-E=       -0.000000000231 Rises=F Damp=F
 DIIS: error= 1.94D-07 at cycle  12 NSaved=  12.
 NSaved=12 IEnMin=12 EnMin= -232.940963747779     IErMin=12 ErrMin= 1.94D-07
 ErrMax= 1.94D-07 EMaxC= 1.00D-01 BMatC= 3.53D-12 BMatP= 6.96D-11
 IDIUse=1 WtCom= 1.00D+00 WtEn= 0.00D+00
 Coeff-Com: -0.817D-06 0.342D-05 0.134D-04 0.147D-03-0.505D-04-0.194D-02
 Coeff-Com: -0.288D-03 0.994D-02 0.166D-02-0.416D-01-0.139D+00 0.117D+01
 Coeff:     -0.817D-06 0.342D-05 0.134D-04 0.147D-03-0.505D-04-0.194D-02
 Coeff:     -0.288D-03 0.994D-02 0.166D-02-0.416D-01-0.139D+00 0.117D+01
 Gap=     0.349 Goal=   None    Shift=    0.000
 RMSDP=6.07D-08 MaxDP=2.95D-06 DE=-2.31D-10 OVMax= 1.39D-06

 Cycle  13  Pass 1  IDiag  1:
 E= -232.940963747794     Delta-E=       -0.000000000015 Rises=F Damp=F
 DIIS: error= 4.46D-08 at cycle  13 NSaved=  13.
 NSaved=13 IEnMin=13 EnMin= -232.940963747794     IErMin=13 ErrMin= 4.46D-08
 ErrMax= 4.46D-08 EMaxC= 1.00D-01 BMatC= 2.91D-13 BMatP= 3.53D-12
 IDIUse=1 WtCom= 1.00D+00 WtEn= 0.00D+00
 Coeff-Com:  0.370D-06-0.377D-05-0.184D-04-0.431D-04 0.362D-03 0.536D-04
 Coeff-Com: -0.148D-02-0.352D-03 0.942D-02 0.121D-01-0.957D-01-0.966D-01
 Coeff-Com:  0.117D+01
 Coeff:      0.370D-06-0.377D-05-0.184D-04-0.431D-04 0.362D-03 0.536D-04
 Coeff:     -0.148D-02-0.352D-03 0.942D-02 0.121D-01-0.957D-01-0.966D-01
 Coeff:      0.117D+01
 Gap=     0.349 Goal=   None    Shift=    0.000
 RMSDP=2.18D-08 MaxDP=7.54D-07 DE=-1.50D-11 OVMax= 4.00D-07

 Cycle  14  Pass 1  IDiag  1:
 E= -232.940963747791     Delta-E=        0.000000000002 Rises=F Damp=F
 DIIS: error= 7.34D-09 at cycle  14 NSaved=  14.
 NSaved=14 IEnMin=13 EnMin= -232.940963747794     IErMin=14 ErrMin= 7.34D-09
 ErrMax= 7.34D-09 EMaxC= 1.00D-01 BMatC= 1.45D-14 BMatP= 2.91D-13
 IDIUse=1 WtCom= 1.00D+00 WtEn= 0.00D+00
 Coeff-Com: -0.558D-08 0.283D-06 0.185D-05-0.117D-05-0.519D-04 0.108D-03
 Coeff-Com:  0.218D-03-0.493D-03-0.154D-02 0.175D-02 0.186D-01-0.495D-01
 Coeff-Com: -0.148D+00 0.118D+01
 Coeff:     -0.558D-08 0.283D-06 0.185D-05-0.117D-05-0.519D-04 0.108D-03
 Coeff:      0.218D-03-0.493D-03-0.154D-02 0.175D-02 0.186D-01-0.495D-01
 Coeff:     -0.148D+00 0.118D+01
 Gap=     0.349 Goal=   None    Shift=    0.000
 RMSDP=5.31D-09 MaxDP=1.59D-07 DE= 2.39D-12 OVMax= 1.03D-07

 SCF Done:  E(RHF) =  -232.940963748     A.U. after   14 cycles
             Convg  =    0.5310D-08             -V/T =  2.0013
 KE= 2.326291460116D+02 PE=-9.910135135868D+02 EE= 3.007105030896D+02
 Leave Link  502 at Thu Nov 25 13:06:58 2021, MaxMem=  498073600 cpu:      68.1
 (Enter /apps/software//g09/l801.exe)
 Windowed orbitals will be sorted by symmetry type.
 ExpMin= 3.60D-02 ExpMax= 4.56D+03 ExpMxC= 6.82D+02 IAcc=3 IRadAn=         5 AccDes= 0.00D+00
 HarFok:  IExCor=  205 AccDes= 0.00D+00 IRadAn=         5 IDoV=-2
 ScaDFX=  1.000000  1.000000  1.000000  1.000000
 Largest valence mixing into a core orbital is  1.47D-04
 Largest core mixing into a valence orbital is  4.05D-05
 Range of M.O.s used for correlation:     7   202
 NBasis=   202 NAE=    23 NBE=    23 NFC=     6 NFV=     0
 NROrb=    196 NOA=    17 NOB=    17 NVA=   179 NVB=   179

 **** Warning!!: The largest alpha MO coefficient is  0.99839346D+02

 Leave Link  801 at Thu Nov 25 13:06:58 2021, MaxMem=  498073600 cpu:       1.5
 (Enter /apps/software//g09/l804.exe)
 Closed-shell transformation, MDV=   498073600 ITran=4 ISComp=1.
 Semi-Direct transformation.
 ModeAB=           2 MOrb=            17 LenV=     496988957
 LASXX=     60327662 LTotXX=    60327662 LenRXX=    60327662
 LTotAB=    61236397 MaxLAS=    72424352 LenRXY=    72424352
 NonZer=   120655324 LenScr=   181748736 LnRSAI=           0
 LnScr1=           0 LExtra=           0 Total=    314500750
 MaxDsk=          -1 SrtSym=           F ITran=            4
 DoSDTr:  NPSUse=  6
 JobTyp=0 Pass  1:  I=   1 to  17.
 (rs|ai) integrals will be sorted in core.
 Complete sort for first half transformation.
 First half transformation complete.
 Begin second half transformation for I=  10.
 Begin second half transformation for I=  10.
 Complete sort for second half transformation.
 Second half transformation complete.
 SymMOI:  orbitals are not symmetric.
 Spin components of T(2) and E(2):
     alpha-alpha T2 =       0.4546035632D-01 E2=     -0.1120155996D+00
     alpha-beta  T2 =       0.2544789518D+00 E2=     -0.6844569887D+00
     beta-beta   T2 =       0.4546035632D-01 E2=     -0.1120155996D+00
 ANorm=    0.1159913645D+01
 E2 =    -0.9084881880D+00 EUMP2 =    -0.23384945193576D+03
 Leave Link  804 at Thu Nov 25 13:08:05 2021, MaxMem=  498073600 cpu:     401.8
 (Enter /apps/software//g09/l913.exe)
 CIDS:  MDV=   498073600.
 Frozen-core window:  NFC=   6 NFV=   0.
 IFCWin=0 IBDFC=1 NFBD=     0     0 NFCmp=     0     0 NFFFC=     0     0
 Using DD3R+UMP44R for 1st iteration, S=T.
 Using DD4RQ for 2nd and later iterations.
 R2 and R3 integrals will be kept in memory, NReq=   477039992.
 Symmetry not used in FoFDir.
 MinBra= 0 MaxBra= 2 Meth= 1.
 IRaf=       0 NMat=   1 IRICut=       1 DoRegI=T DoRafI=F ISym2E= 0 JSym2E=0.
 CCSD(T)
 =======
 Iterations=  50 Convergence= 0.100D-06
 Iteration Nr.   1
 **********************
 DD1Dir will call FoFMem   1 times, MxPair=       306
 NAB=   153 NAA=     0 NBB=     0.
 MP4(R+Q)=  0.27092742D-01
 Maximum subspace dimension=  5
 Norm of the A-vectors is  2.0647197D+00 conv= 1.00D-05.
 RLE energy=       -0.9220901283
 E3=       -0.40720001D-01        EUMP3=      -0.23389017194D+03
 E4(DQ)=    0.15668999D-02        UMP4(DQ)=   -0.23388860504D+03
 E4(SDQ)=  -0.62885346D-02        UMP4(SDQ)=  -0.23389646047D+03
 VARIATIONAL ENERGIES WITH THE FIRST-ORDER WAVEFUNCTION:
 DE(Corr)= -0.92188954     E(Corr)=     -233.86285329    
 NORM(A)=   0.11640934D+01
 Iteration Nr.   2
 **********************
 DD1Dir will call FoFMem   1 times, MxPair=       306
 NAB=   153 NAA=     0 NBB=     0.
 Norm of the A-vectors is  6.4866514D-01 conv= 1.00D-05.
 RLE energy=       -0.9548545420
 DE(Corr)= -0.95158028     E(CORR)=     -233.89254403     Delta=-2.97D-02
 NORM(A)=   0.11799120D+01
 Iteration Nr.   3
 **********************
 DD1Dir will call FoFMem   1 times, MxPair=       306
 NAB=   153 NAA=     0 NBB=     0.
 Norm of the A-vectors is  2.2455378D-01 conv= 1.00D-05.
 RLE energy=       -0.9561501204
 DE(Corr)= -0.95375200     E(CORR)=     -233.89471575     Delta=-2.17D-03
 NORM(A)=   0.11829655D+01
 Iteration Nr.   4
 **********************
 DD1Dir will call FoFMem   1 times, MxPair=       306
 NAB=   153 NAA=     0 NBB=     0.
 Norm of the A-vectors is  7.7925117D-02 conv= 1.00D-05.
 RLE energy=       -0.9567417090
 DE(Corr)= -0.95649312     E(CORR)=     -233.89745687     Delta=-2.74D-03
 NORM(A)=   0.11843342D+01
 Iteration Nr.   5
 **********************
 DD1Dir will call FoFMem   1 times, MxPair=       306
 NAB=   153 NAA=     0 NBB=     0.
 Norm of the A-vectors is  2.8361028D-02 conv= 1.00D-05.
 RLE energy=       -0.9569284978
 DE(Corr)= -0.95682735     E(CORR)=     -233.89779110     Delta=-3.34D-04
 NORM(A)=   0.11847214D+01
 Iteration Nr.   6
 **********************
 DD1Dir will call FoFMem   1 times, MxPair=       306
 NAB=   153 NAA=     0 NBB=     0.
 Norm of the A-vectors is  1.0184900D-02 conv= 1.00D-05.
 RLE energy=       -0.9568756374
 DE(Corr)= -0.95688334     E(CORR)=     -233.89784709     Delta=-5.60D-05
 NORM(A)=   0.11847466D+01
 Iteration Nr.   7
 **********************
 DD1Dir will call FoFMem   1 times, MxPair=       306
 NAB=   153 NAA=     0 NBB=     0.
 Norm of the A-vectors is  3.0509393D-03 conv= 1.00D-05.
 RLE energy=       -0.9568772040
 DE(Corr)= -0.95688801     E(CORR)=     -233.89785176     Delta=-4.67D-06
 NORM(A)=   0.11847535D+01
 Iteration Nr.   8
 **********************
 DD1Dir will call FoFMem   1 times, MxPair=       306
 NAB=   153 NAA=     0 NBB=     0.
 Norm of the A-vectors is  1.2488441D-03 conv= 1.00D-05.
 RLE energy=       -0.9568840129
 DE(Corr)= -0.95688501     E(CORR)=     -233.89784875     Delta= 3.00D-06
 NORM(A)=   0.11847577D+01
 Iteration Nr.   9
 **********************
 DD1Dir will call FoFMem   1 times, MxPair=       306
 NAB=   153 NAA=     0 NBB=     0.
 Norm of the A-vectors is  5.1587163D-04 conv= 1.00D-05.
 RLE energy=       -0.9568852855
 DE(Corr)= -0.95688578     E(CORR)=     -233.89784953     Delta=-7.72D-07
 NORM(A)=   0.11847584D+01
 Iteration Nr.  10
 **********************
 DD1Dir will call FoFMem   1 times, MxPair=       306
 NAB=   153 NAA=     0 NBB=     0.
 Norm of the A-vectors is  2.8175409D-04 conv= 1.00D-05.
 RLE energy=       -0.9568864358
 DE(Corr)= -0.95688611     E(CORR)=     -233.89784986     Delta=-3.34D-07
 NORM(A)=   0.11847598D+01
 Iteration Nr.  11
 **********************
 DD1Dir will call FoFMem   1 times, MxPair=       306
 NAB=   153 NAA=     0 NBB=     0.
 Norm of the A-vectors is  1.6781699D-04 conv= 1.00D-05.
 RLE energy=       -0.9568868405
 DE(Corr)= -0.95688663     E(CORR)=     -233.89785038     Delta=-5.20D-07
 NORM(A)=   0.11847606D+01
 Iteration Nr.  12
 **********************
 DD1Dir will call FoFMem   1 times, MxPair=       306
 NAB=   153 NAA=     0 NBB=     0.
 Norm of the A-vectors is  7.6649103D-05 conv= 1.00D-05.
 RLE energy=       -0.9568869849
 DE(Corr)= -0.95688686     E(CORR)=     -233.89785061     Delta=-2.29D-07
 NORM(A)=   0.11847612D+01
 Iteration Nr.  13
 **********************
 DD1Dir will call FoFMem   1 times, MxPair=       306
 NAB=   153 NAA=     0 NBB=     0.
 Norm of the A-vectors is  3.6762247D-05 conv= 1.00D-05.
 RLE energy=       -0.9568870746
 DE(Corr)= -0.95688703     E(CORR)=     -233.89785078     Delta=-1.73D-07
 NORM(A)=   0.11847615D+01
 Iteration Nr.  14
 **********************
 DD1Dir will call FoFMem   1 times, MxPair=       306
 NAB=   153 NAA=     0 NBB=     0.
 Norm of the A-vectors is  1.5926761D-05 conv= 1.00D-05.
 RLE energy=       -0.9568871231
 DE(Corr)= -0.95688710     E(CORR)=     -233.89785085     Delta=-6.43D-08
 NORM(A)=   0.11847616D+01
 Iteration Nr.  15
 **********************
 DD1Dir will call FoFMem   1 times, MxPair=       306
 NAB=   153 NAA=     0 NBB=     0.
 Norm of the A-vectors is  7.8542212D-06 conv= 1.00D-05.
 RLE energy=       -0.9568871366
 DE(Corr)= -0.95688713     E(CORR)=     -233.89785088     Delta=-2.99D-08
 NORM(A)=   0.11847617D+01
 CI/CC converged in   15 iterations to DelEn=-2.99D-08 Conv= 1.00D-07 ErrA1= 7.85D-06 Conv= 1.00D-05
 Largest amplitude= 5.68D-02
 T4(AAA)= -0.13528933D-02
 T4(AAB)= -0.21908726D-01
 T5(AAA)=  0.39999946D-04
 T5(AAB)=  0.47052958D-03
 Time for triples=     8295.23 seconds.
 T4(CCSD)= -0.46523239D-01
 T5(CCSD)=  0.10210590D-02
 CCSD(T)= -0.23394335306D+03
 Leave Link  913 at Thu Nov 25 13:57:54 2021, MaxMem=  498073600 cpu:   17631.3
 (Enter /apps/software//g09/l601.exe)
 Copying SCF densities to generalized density rwf, IOpCl= 0 IROHF=0.

 **********************************************************************

            Population analysis using the SCF density.

 **********************************************************************

 Orbital symmetries:
       Occupied  (A) (A) (A) (A) (A) (A) (A) (A) (A) (A) (A) (A)
                 (A) (A) (A) (A) (A) (A) (A) (A) (A) (A) (A)
       Virtual   (A) (A) (A) (A) (A) (A) (A) (A) (A) (A) (A) (A)
                 (A) (A) (A) (A) (A) (A) (A) (A) (A) (A) (A) (A)
                 (A) (A) (A) (A) (A) (A) (A) (A) (A) (A) (A) (A)
                 (A) (A) (A) (A) (A) (A) (A) (A) (A) (A) (A) (A)
                 (A) (A) (A) (A) (A) (A) (A) (A) (A) (A) (A) (A)
                 (A) (A) (A) (A) (A) (A) (A) (A) (A) (A) (A) (A)
                 (A) (A) (A) (A) (A) (A) (A) (A) (A) (A) (A) (A)
                 (A) (A) (A) (A) (A) (A) (A) (A) (A) (A) (A) (A)
                 (A) (A) (A) (A) (A) (A) (A) (A) (A) (A) (A) (A)
                 (A) (A) (A) (A) (A) (A) (A) (A) (A) (A) (A) (A)
                 (A) (A) (A) (A) (A) (A) (A) (A) (A) (A) (A) (A)
                 (A) (A) (A) (A) (A) (A) (A) (A) (A) (A) (A) (A)
                 (A) (A) (A) (A) (A) (A) (A) (A) (A) (A) (A) (A)
                 (A) (A) (A) (A) (A) (A) (A) (A) (A) (A) (A) (A)
                 (A) (A) (A) (A) (A) (A) (A) (A) (A) (A) (A)
 The electronic state is 1-A.
 Alpha  occ. eigenvalues --  -11.23844 -11.23842 -11.23073 -11.22948 -11.22376
 Alpha  occ. eigenvalues --  -11.22262  -1.09533  -1.01505  -0.97866  -0.85191
 Alpha  occ. eigenvalues --   -0.79688  -0.71635  -0.67085  -0.63816  -0.59596
 Alpha  occ. eigenvalues --   -0.57016  -0.56786  -0.52034  -0.50704  -0.48939
 Alpha  occ. eigenvalues --   -0.47407  -0.30524  -0.30496
 Alpha virt. eigenvalues --    0.04441   0.05099   0.05333   0.06229   0.07078
 Alpha virt. eigenvalues --    0.07418   0.07661   0.08118   0.09590   0.10888
 Alpha virt. eigenvalues --    0.10997   0.14091   0.14093   0.16280   0.16769
 Alpha virt. eigenvalues --    0.16918   0.17279   0.18435   0.19079   0.19145
 Alpha virt. eigenvalues --    0.19709   0.20081   0.20259   0.21528   0.21541
 Alpha virt. eigenvalues --    0.21910   0.22442   0.22689   0.23923   0.24245
 Alpha virt. eigenvalues --    0.24360   0.25102   0.25355   0.25428   0.28404
 Alpha virt. eigenvalues --    0.31614   0.31617   0.33432   0.35379   0.35429
 Alpha virt. eigenvalues --    0.41080   0.41375   0.43242   0.43411   0.43994
 Alpha virt. eigenvalues --    0.45395   0.47565   0.49191   0.52177   0.57260
 Alpha virt. eigenvalues --    0.58716   0.59015   0.59971   0.61773   0.62765
 Alpha virt. eigenvalues --    0.69385   0.71465   0.73765   0.74756   0.76787
 Alpha virt. eigenvalues --    0.77219   0.79007   0.82039   0.83892   0.87584
 Alpha virt. eigenvalues --    0.87741   0.88974   0.89186   0.92052   0.93010
 Alpha virt. eigenvalues --    0.93732   0.93840   0.94174   0.96258   0.99060
 Alpha virt. eigenvalues --    0.99898   1.00644   1.01975   1.03650   1.05333
 Alpha virt. eigenvalues --    1.10274   1.12032   1.16065   1.26232   1.26302
 Alpha virt. eigenvalues --    1.32037   1.36560   1.39916   1.40575   1.46490
 Alpha virt. eigenvalues --    1.49262   1.52024   1.58334   1.61810   1.71086
 Alpha virt. eigenvalues --    1.71540   1.75128   1.77777   1.79035   1.84462
 Alpha virt. eigenvalues --    1.85334   1.86472   1.88378   1.89243   1.92959
 Alpha virt. eigenvalues --    1.93576   1.96903   1.97566   1.98386   1.99587
 Alpha virt. eigenvalues --    2.03469   2.05416   2.10161   2.10821   2.12753
 Alpha virt. eigenvalues --    2.13491   2.16335   2.21024   2.23394   2.28531
 Alpha virt. eigenvalues --    2.29516   2.31143   2.36144   2.41904   2.42418
 Alpha virt. eigenvalues --    2.47430   2.48659   2.50639   2.53419   2.55142
 Alpha virt. eigenvalues --    2.57983   2.63906   2.66568   2.74610   2.76053
 Alpha virt. eigenvalues --    2.81420   2.83041   2.87358   2.89958   2.91295
 Alpha virt. eigenvalues --    2.95785   2.97149   2.97274   3.00348   3.01781
 Alpha virt. eigenvalues --    3.06395   3.08225   3.11955   3.17449   3.18503
 Alpha virt. eigenvalues --    3.19115   3.22260   3.27563   3.29180   3.31062
 Alpha virt. eigenvalues --    3.35099   3.40370   3.47902   3.54410   3.64286
 Alpha virt. eigenvalues --    3.68727   3.77709   3.82529   3.91899   3.94112
 Alpha virt. eigenvalues --    4.02935   4.16089   4.21329   4.29540   4.45440
 Alpha virt. eigenvalues --    4.46773   4.56896   4.85069  24.87461  24.97582
 Alpha virt. eigenvalues --   25.15525  25.25710  25.27824  25.34165
          Condensed to atoms (all electrons):
              1          2          3          4          5          6
     1  C    5.472615  -0.205074   0.383880   0.035009  -0.012357   0.062897
     2  C   -0.205074   5.472449   0.035073   0.384172   0.063026  -0.012123
     3  C    0.383880   0.035073   5.435290  -0.031674  -0.199164   0.046512
     4  C    0.035009   0.384172  -0.031674   5.434217   0.046455  -0.198814
     5  C   -0.012357   0.063026  -0.199164   0.046455   5.486894   0.252898
     6  C    0.062897  -0.012123   0.046512  -0.198814   0.252898   5.487141
     7  H    0.423213   0.010954  -0.046803  -0.002110  -0.003567  -0.003555
     8  H    0.452512  -0.020857  -0.070740   0.036707  -0.089008  -0.003582
     9  H    0.010962   0.423208  -0.002092  -0.046799  -0.003540  -0.003546
    10  H   -0.020794   0.452329   0.036691  -0.070684  -0.003521  -0.089023
    11  H   -0.029045  -0.001232   0.456216  -0.086564  -0.020971   0.011254
    12  H   -0.001217  -0.029044  -0.086528   0.456091   0.011255  -0.020944
    13  H   -0.037460   0.012446  -0.014299   0.009955   0.455943  -0.067972
    14  H   -0.033311   0.011118  -0.042217   0.042765   0.465015  -0.072262
    15  H    0.012466  -0.037399   0.009937  -0.014270  -0.067903   0.455863
    16  H    0.011102  -0.033295   0.042781  -0.042161  -0.072249   0.464902
              7          8          9         10         11         12
     1  C    0.423213   0.452512   0.010962  -0.020794  -0.029045  -0.001217
     2  C    0.010954  -0.020857   0.423208   0.452329  -0.001232  -0.029044
     3  C   -0.046803  -0.070740  -0.002092   0.036691   0.456216  -0.086528
     4  C   -0.002110   0.036707  -0.046799  -0.070684  -0.086564   0.456091
     5  C   -0.003567  -0.089008  -0.003540  -0.003521  -0.020971   0.011255
     6  C   -0.003555  -0.003582  -0.003546  -0.089023   0.011254  -0.020944
     7  H    0.487199  -0.020373   0.000913  -0.002161  -0.002404   0.000252
     8  H   -0.020373   0.540391  -0.002165   0.005376   0.003690  -0.000464
     9  H    0.000913  -0.002165   0.487196  -0.020379   0.000253  -0.002407
    10  H   -0.002161   0.005376  -0.020379   0.540434  -0.000465   0.003689
    11  H   -0.002404   0.003690   0.000253  -0.000465   0.509473  -0.000280
    12  H    0.000252  -0.000464  -0.002407   0.003689  -0.000280   0.509485
    13  H    0.005089  -0.009341   0.000314   0.002489  -0.001122   0.000877
    14  H    0.000112   0.004102  -0.000761   0.000571  -0.002100   0.001669
    15  H    0.000314   0.002486   0.005081  -0.009332   0.000877  -0.001118
    16  H   -0.000760   0.000574   0.000120   0.004103   0.001667  -0.002103
             13         14         15         16
     1  C   -0.037460  -0.033311   0.012466   0.011102
     2  C    0.012446   0.011118  -0.037399  -0.033295
     3  C   -0.014299  -0.042217   0.009937   0.042781
     4  C    0.009955   0.042765  -0.014270  -0.042161
     5  C    0.455943   0.465015  -0.067903  -0.072249
     6  C   -0.067972  -0.072262   0.455863   0.464902
     7  H    0.005089   0.000112   0.000314  -0.000760
     8  H   -0.009341   0.004102   0.002486   0.000574
     9  H    0.000314  -0.000761   0.005081   0.000120
    10  H    0.002489   0.000571  -0.009332   0.004103
    11  H   -0.001122  -0.002100   0.000877   0.001667
    12  H    0.000877   0.001669  -0.001118  -0.002103
    13  H    0.506312  -0.020667   0.006411  -0.003421
    14  H   -0.020667   0.501519  -0.003423  -0.000135
    15  H    0.006411  -0.003423   0.506249  -0.020665
    16  H   -0.003421  -0.000135  -0.020665   0.501494
 Mulliken atomic charges:
              1
     1  C   -0.525398
     2  C   -0.525752
     3  C    0.047136
     4  C    0.047705
     5  C   -0.309206
     6  C   -0.309644
     7  H    0.153687
     8  H    0.170692
     9  H    0.153642
    10  H    0.170677
    11  H    0.160753
    12  H    0.160787
    13  H    0.154444
    14  H    0.148004
    15  H    0.154427
    16  H    0.148045
 Sum of Mulliken atomic charges =   0.00000
 Mulliken charges with hydrogens summed into heavy atoms:
              1
     1  C   -0.201019
     2  C   -0.201433
     3  C    0.207889
     4  C    0.208493
     5  C   -0.006757
     6  C   -0.007172
 Sum of Mulliken charges with hydrogens summed into heavy atoms =   0.00000
 Electronic spatial extent (au):  <R**2>=            614.3647
 Charge=              0.0000 electrons
 Dipole moment (field-independent basis, Debye):
    X=             -0.5578    Y=             -0.0004    Z=              0.0318  Tot=              0.5587
 Quadrupole moment (field-independent basis, Debye-Ang):
   XX=            -43.9044   YY=            -36.4038   ZZ=            -37.9062
   XY=              0.0000   XZ=             -3.6497   YZ=              0.0003
 Traceless Quadrupole moment (field-independent basis, Debye-Ang):
   XX=             -4.4996   YY=              3.0010   ZZ=              1.4986
   XY=              0.0000   XZ=             -3.6497   YZ=              0.0003
 Octapole moment (field-independent basis, Debye-Ang**2):
  XXX=              1.3223  YYY=             -0.0011  ZZZ=              0.6153  XYY=             -2.5505
  XXY=              0.0017  XXZ=             -2.4560  XZZ=             -1.5637  YZZ=             -0.0008
  YYZ=             -1.7426  XYZ=              0.0005
 Hexadecapole moment (field-independent basis, Debye-Ang**3):
 XXXX=           -465.8539 YYYY=           -318.6617 ZZZZ=           -107.6014 XXXY=             -0.0033
 XXXZ=            -25.7646 YYYX=              0.0040 YYYZ=              0.0024 ZZZX=             -5.8716
 ZZZY=             -0.0009 XXYY=           -128.6567 XXZZ=            -87.2915 YYZZ=            -74.6361
 XXYZ=             -0.0004 YYXZ=             -7.0748 ZZXY=             -0.0020
 N-N= 2.247329007378D+02 E-N=-9.910135137609D+02  KE= 2.326291460116D+02
 Leave Link  601 at Thu Nov 25 13:57:54 2021, MaxMem=  498073600 cpu:       0.5
 (Enter /apps/software//g09/l9999.exe)
 1\1\GINC-DLT06\SP\RCCSD(T)-FC\6-311++G(d,p)\C6H10\ITAMAR\25-Nov-2021\0
 \\#P CCSD-T/6-311++G**\\14-H\\0,1\C,0,-0.426946,1.432986,0.496319\C,0,
 -0.427164,-1.433129,0.496368\C,0,-1.323801,0.701175,-0.262393\C,0,-1.3
 23835,-0.701151,-0.262354\C,0,1.556444,0.694313,-0.257168\C,0,1.556966
 ,-0.69422,-0.257321\H,0,-0.374636,2.50994,0.377999\H,0,-0.094413,1.068
 759,1.458987\H,0,-0.374996,-2.510113,0.378071\H,0,-0.094247,-1.068877,
 1.458896\H,0,-1.89163,1.211696,-1.0352\H,0,-1.891764,-1.211594,-1.0351
 48\H,0,2.078276,1.230638,0.526642\H,0,1.444038,1.233732,-1.188035\H,0,
 2.078743,-1.230482,0.526531\H,0,1.444506,-1.233676,-1.188135\\Version=
 EM64L-G09RevA.02\State=1-A\HF=-232.9409637\MP2=-233.8494519\MP3=-233.8
 901719\MP4D=-233.9156978\MP4DQ=-233.888605\MP4SDQ=-233.8964605\CCSD=-2
 33.8978509\CCSD(T)=-233.9433531\RMSD=5.310e-09\PG=C01 [X(C6H10)]\\@


 THOSE WHO ARE UNABLE TO LEARN FROM PAST MEETINGS
 ARE CONDEMNED TO REPEAT THEM.
 Job cpu time:  0 days  5 hours  1 minutes 53.4 seconds.
 File lengths (MBytes):  RWF=   7442 Int=      0 D2E=      0 Chk=      4 Scr=      1
 Normal termination of Gaussian 09 at Thu Nov 25 13:57:55 2021.
