Bla-0.1                                                                 
SP        RMP2-FC                                                     6-311++G(d,p)       
Number of atoms                            I               12
Info1-9                                    I   N=           9
          23          21           0           0           0         110
           1           2           1
Charge                                     I                0
Multiplicity                               I                1
Number of electrons                        I               42
Number of alpha electrons                  I               21
Number of beta electrons                   I               21
Number of basis functions                  I              174
Number of independent functions            I              174
Number of point charges in /Mol/           I                0
Number of translation vectors              I                0
Atomic numbers                             I   N=          12
           6           6           6           6           6           6
           1           1           1           1           1           1
Nuclear charges                            R   N=          12
  6.00000000E+00  6.00000000E+00  6.00000000E+00  6.00000000E+00  6.00000000E+00
  6.00000000E+00  1.00000000E+00  1.00000000E+00  1.00000000E+00  1.00000000E+00
  1.00000000E+00  1.00000000E+00
Current cartesian coordinates              R   N=          36
  1.27052335E+00  2.30971210E+00  0.00000000E+00  2.63553157E+00 -5.45514957E-02
 -1.67165295E-16  1.36500822E+00 -2.25516249E+00  0.00000000E+00 -1.36500822E+00
 -2.25516249E+00  3.22759530E-16 -2.63553157E+00 -5.45514957E-02  0.00000000E+00
 -1.27052335E+00  2.30971210E+00 -1.55594235E-16  2.29515554E+00  4.08442950E+00
  0.00000000E+00  4.68479802E+00 -5.45526933E-02 -2.92646802E-16  2.38964248E+00
 -4.02987869E+00  0.00000000E+00 -2.38964248E+00 -4.02987869E+00  5.73722290E-16
 -4.68479802E+00 -5.45526933E-02  0.00000000E+00 -2.29515554E+00  4.08442950E+00
 -2.81075488E-16
Force Field                                I                0
Int Atom Types                             I   N=          12
           0           0           0           0           0           0
           0           0           0           0           0           0
MM charges                                 R   N=          12
  0.00000000E+00  0.00000000E+00  0.00000000E+00  0.00000000E+00  0.00000000E+00
  0.00000000E+00  0.00000000E+00  0.00000000E+00  0.00000000E+00  0.00000000E+00
  0.00000000E+00  0.00000000E+00
Integer atomic weights                     I   N=          12
          12          12          12          12          12          12
           1           1           1           1           1           1
Real atomic weights                        R   N=          12
  1.20000000E+01  1.20000000E+01  1.20000000E+01  1.20000000E+01  1.20000000E+01
  1.20000000E+01  1.00782504E+00  1.00782504E+00  1.00782504E+00  1.00782504E+00
  1.00782504E+00  1.00782504E+00
Atom fragment info                         I   N=          12
           0           0           0           0           0           0
           0           0           0           0           0           0
Atom residue num                           I   N=          12
           0           0           0           0           0           0
           0           0           0           0           0           0
Nuclear spins                              I   N=          12
           0           0           0           0           0           0
           1           1           1           1           1           1
Nuclear ZEff                               R   N=          12
 -3.60000000E+00 -3.60000000E+00 -3.60000000E+00 -3.60000000E+00 -3.60000000E+00
 -3.60000000E+00 -1.00000000E+00 -1.00000000E+00 -1.00000000E+00 -1.00000000E+00
 -1.00000000E+00 -1.00000000E+00
Nuclear QMom                               R   N=          12
  0.00000000E+00  0.00000000E+00  0.00000000E+00  0.00000000E+00  0.00000000E+00
  0.00000000E+00  0.00000000E+00  0.00000000E+00  0.00000000E+00  0.00000000E+00
  0.00000000E+00  0.00000000E+00
Nuclear GFac                               R   N=          12
  0.00000000E+00  0.00000000E+00  0.00000000E+00  0.00000000E+00  0.00000000E+00
  0.00000000E+00  2.79284600E+00  2.79284600E+00  2.79284600E+00  2.79284600E+00
  2.79284600E+00  2.79284600E+00
MicOpt                                     I   N=          12
          -1          -1          -1          -1          -1          -1
          -1          -1          -1          -1          -1          -1
Number of contracted shells                I               66
Number of primitive shells                 I              120
Pure/Cartesian d shells                    I                0
Pure/Cartesian f shells                    I                0
Highest angular momentum                   I                2
Largest degree of contraction              I                6
Shell types                                I   N=          66
           0          -1          -1          -1          -1          -2
           0          -1          -1          -1          -1          -2
           0          -1          -1          -1          -1          -2
           0          -1          -1          -1          -1          -2
           0          -1          -1          -1          -1          -2
           0          -1          -1          -1          -1          -2
           0           0           0           0           1           0
           0           0           0           1           0           0
           0           0           1           0           0           0
           0           1           0           0           0           0
           1           0           0           0           0           1
Number of primitives per shell             I   N=          66
           6           3           1           1           1           1
           6           3           1           1           1           1
           6           3           1           1           1           1
           6           3           1           1           1           1
           6           3           1           1           1           1
           6           3           1           1           1           1
           3           1           1           1           1           3
           1           1           1           1           3           1
           1           1           1           3           1           1
           1           1           3           1           1           1
           1           3           1           1           1           1
Shell to atom map                          I   N=          66
           1           1           1           1           1           1
           2           2           2           2           2           2
           3           3           3           3           3           3
           4           4           4           4           4           4
           5           5           5           5           5           5
           6           6           6           6           6           6
           7           7           7           7           7           8
           8           8           8           8           9           9
           9           9           9          10          10          10
          10          10          11          11          11          11
          11          12          12          12          12          12
Primitive exponents                        R   N=         120
  4.56324000E+03  6.82024000E+02  1.54973000E+02  4.44553000E+01  1.30290000E+01
  1.82773000E+00  2.09642000E+01  4.80331000E+00  1.45933000E+00  4.83456000E-01
  1.45585000E-01  4.38000000E-02  6.26000000E-01  4.56324000E+03  6.82024000E+02
  1.54973000E+02  4.44553000E+01  1.30290000E+01  1.82773000E+00  2.09642000E+01
  4.80331000E+00  1.45933000E+00  4.83456000E-01  1.45585000E-01  4.38000000E-02
  6.26000000E-01  4.56324000E+03  6.82024000E+02  1.54973000E+02  4.44553000E+01
  1.30290000E+01  1.82773000E+00  2.09642000E+01  4.80331000E+00  1.45933000E+00
  4.83456000E-01  1.45585000E-01  4.38000000E-02  6.26000000E-01  4.56324000E+03
  6.82024000E+02  1.54973000E+02  4.44553000E+01  1.30290000E+01  1.82773000E+00
  2.09642000E+01  4.80331000E+00  1.45933000E+00  4.83456000E-01  1.45585000E-01
  4.38000000E-02  6.26000000E-01  4.56324000E+03  6.82024000E+02  1.54973000E+02
  4.44553000E+01  1.30290000E+01  1.82773000E+00  2.09642000E+01  4.80331000E+00
  1.45933000E+00  4.83456000E-01  1.45585000E-01  4.38000000E-02  6.26000000E-01
  4.56324000E+03  6.82024000E+02  1.54973000E+02  4.44553000E+01  1.30290000E+01
  1.82773000E+00  2.09642000E+01  4.80331000E+00  1.45933000E+00  4.83456000E-01
  1.45585000E-01  4.38000000E-02  6.26000000E-01  3.38650000E+01  5.09479000E+00
  1.15879000E+00  3.25840000E-01  1.02741000E-01  3.60000000E-02  7.50000000E-01
  3.38650000E+01  5.09479000E+00  1.15879000E+00  3.25840000E-01  1.02741000E-01
  3.60000000E-02  7.50000000E-01  3.38650000E+01  5.09479000E+00  1.15879000E+00
  3.25840000E-01  1.02741000E-01  3.60000000E-02  7.50000000E-01  3.38650000E+01
  5.09479000E+00  1.15879000E+00  3.25840000E-01  1.02741000E-01  3.60000000E-02
  7.50000000E-01  3.38650000E+01  5.09479000E+00  1.15879000E+00  3.25840000E-01
  1.02741000E-01  3.60000000E-02  7.50000000E-01  3.38650000E+01  5.09479000E+00
  1.15879000E+00  3.25840000E-01  1.02741000E-01  3.60000000E-02  7.50000000E-01
Contraction coefficients                   R   N=         120
  1.96665025E-03  1.52306019E-02  7.61269097E-02  2.60801033E-01  6.16462078E-01
  2.21006028E-01  1.14660081E-01  9.19999648E-01 -3.03068213E-03  1.00000000E+00
  1.00000000E+00  1.00000000E+00  1.00000000E+00  1.96665025E-03  1.52306019E-02
  7.61269097E-02  2.60801033E-01  6.16462078E-01  2.21006028E-01  1.14660081E-01
  9.19999648E-01 -3.03068213E-03  1.00000000E+00  1.00000000E+00  1.00000000E+00
  1.00000000E+00  1.96665025E-03  1.52306019E-02  7.61269097E-02  2.60801033E-01
  6.16462078E-01  2.21006028E-01  1.14660081E-01  9.19999648E-01 -3.03068213E-03
  1.00000000E+00  1.00000000E+00  1.00000000E+00  1.00000000E+00  1.96665025E-03
  1.52306019E-02  7.61269097E-02  2.60801033E-01  6.16462078E-01  2.21006028E-01
  1.14660081E-01  9.19999648E-01 -3.03068213E-03  1.00000000E+00  1.00000000E+00
  1.00000000E+00  1.00000000E+00  1.96665025E-03  1.52306019E-02  7.61269097E-02
  2.60801033E-01  6.16462078E-01  2.21006028E-01  1.14660081E-01  9.19999648E-01
 -3.03068213E-03  1.00000000E+00  1.00000000E+00  1.00000000E+00  1.00000000E+00
  1.96665025E-03  1.52306019E-02  7.61269097E-02  2.60801033E-01  6.16462078E-01
  2.21006028E-01  1.14660081E-01  9.19999648E-01 -3.03068213E-03  1.00000000E+00
  1.00000000E+00  1.00000000E+00  1.00000000E+00  2.54938145E-02  1.90373109E-01
  8.52161486E-01  1.00000000E+00  1.00000000E+00  1.00000000E+00  1.00000000E+00
  2.54938145E-02  1.90373109E-01  8.52161486E-01  1.00000000E+00  1.00000000E+00
  1.00000000E+00  1.00000000E+00  2.54938145E-02  1.90373109E-01  8.52161486E-01
  1.00000000E+00  1.00000000E+00  1.00000000E+00  1.00000000E+00  2.54938145E-02
  1.90373109E-01  8.52161486E-01  1.00000000E+00  1.00000000E+00  1.00000000E+00
  1.00000000E+00  2.54938145E-02  1.90373109E-01  8.52161486E-01  1.00000000E+00
  1.00000000E+00  1.00000000E+00  1.00000000E+00  2.54938145E-02  1.90373109E-01
  8.52161486E-01  1.00000000E+00  1.00000000E+00  1.00000000E+00  1.00000000E+00
P(S=P) Contraction coefficients            R   N=         120
  0.00000000E+00  0.00000000E+00  0.00000000E+00  0.00000000E+00  0.00000000E+00
  0.00000000E+00  4.02486927E-02  2.37593957E-01  8.15853851E-01  1.00000000E+00
  1.00000000E+00  1.00000000E+00  0.00000000E+00  0.00000000E+00  0.00000000E+00
  0.00000000E+00  0.00000000E+00  0.00000000E+00  0.00000000E+00  4.02486927E-02
  2.37593957E-01  8.15853851E-01  1.00000000E+00  1.00000000E+00  1.00000000E+00
  0.00000000E+00  0.00000000E+00  0.00000000E+00  0.00000000E+00  0.00000000E+00
  0.00000000E+00  0.00000000E+00  4.02486927E-02  2.37593957E-01  8.15853851E-01
  1.00000000E+00  1.00000000E+00  1.00000000E+00  0.00000000E+00  0.00000000E+00
  0.00000000E+00  0.00000000E+00  0.00000000E+00  0.00000000E+00  0.00000000E+00
  4.02486927E-02  2.37593957E-01  8.15853851E-01  1.00000000E+00  1.00000000E+00
  1.00000000E+00  0.00000000E+00  0.00000000E+00  0.00000000E+00  0.00000000E+00
  0.00000000E+00  0.00000000E+00  0.00000000E+00  4.02486927E-02  2.37593957E-01
  8.15853851E-01  1.00000000E+00  1.00000000E+00  1.00000000E+00  0.00000000E+00
  0.00000000E+00  0.00000000E+00  0.00000000E+00  0.00000000E+00  0.00000000E+00
  0.00000000E+00  4.02486927E-02  2.37593957E-01  8.15853851E-01  1.00000000E+00
  1.00000000E+00  1.00000000E+00  0.00000000E+00  0.00000000E+00  0.00000000E+00
  0.00000000E+00  0.00000000E+00  0.00000000E+00  0.00000000E+00  0.00000000E+00
  0.00000000E+00  0.00000000E+00  0.00000000E+00  0.00000000E+00  0.00000000E+00
  0.00000000E+00  0.00000000E+00  0.00000000E+00  0.00000000E+00  0.00000000E+00
  0.00000000E+00  0.00000000E+00  0.00000000E+00  0.00000000E+00  0.00000000E+00
  0.00000000E+00  0.00000000E+00  0.00000000E+00  0.00000000E+00  0.00000000E+00
  0.00000000E+00  0.00000000E+00  0.00000000E+00  0.00000000E+00  0.00000000E+00
  0.00000000E+00  0.00000000E+00  0.00000000E+00  0.00000000E+00  0.00000000E+00
  0.00000000E+00  0.00000000E+00  0.00000000E+00  0.00000000E+00  0.00000000E+00
Coordinates of each shell                  R   N=         198
  1.27052335E+00  2.30971273E+00  0.00000000E+00  1.27052335E+00  2.30971273E+00
  0.00000000E+00  1.27052335E+00  2.30971273E+00  0.00000000E+00  1.27052335E+00
  2.30971273E+00  0.00000000E+00  1.27052335E+00  2.30971273E+00  0.00000000E+00
  1.27052335E+00  2.30971273E+00  0.00000000E+00  2.63553157E+00 -5.45508658E-02
 -1.67165295E-16  2.63553157E+00 -5.45508658E-02 -1.67165295E-16  2.63553157E+00
 -5.45508658E-02 -1.67165295E-16  2.63553157E+00 -5.45508658E-02 -1.67165295E-16
  2.63553157E+00 -5.45508658E-02 -1.67165295E-16  2.63553157E+00 -5.45508658E-02
 -1.67165295E-16  1.36500822E+00 -2.25516186E+00  0.00000000E+00  1.36500822E+00
 -2.25516186E+00  0.00000000E+00  1.36500822E+00 -2.25516186E+00  0.00000000E+00
  1.36500822E+00 -2.25516186E+00  0.00000000E+00  1.36500822E+00 -2.25516186E+00
  0.00000000E+00  1.36500822E+00 -2.25516186E+00  0.00000000E+00 -1.36500822E+00
 -2.25516186E+00  3.22759530E-16 -1.36500822E+00 -2.25516186E+00  3.22759530E-16
 -1.36500822E+00 -2.25516186E+00  3.22759530E-16 -1.36500822E+00 -2.25516186E+00
  3.22759530E-16 -1.36500822E+00 -2.25516186E+00  3.22759530E-16 -1.36500822E+00
 -2.25516186E+00  3.22759530E-16 -2.63553157E+00 -5.45508658E-02  0.00000000E+00
 -2.63553157E+00 -5.45508658E-02  0.00000000E+00 -2.63553157E+00 -5.45508658E-02
  0.00000000E+00 -2.63553157E+00 -5.45508658E-02  0.00000000E+00 -2.63553157E+00
 -5.45508658E-02  0.00000000E+00 -2.63553157E+00 -5.45508658E-02  0.00000000E+00
 -1.27052335E+00  2.30971273E+00 -1.55594235E-16 -1.27052335E+00  2.30971273E+00
 -1.55594235E-16 -1.27052335E+00  2.30971273E+00 -1.55594235E-16 -1.27052335E+00
  2.30971273E+00 -1.55594235E-16 -1.27052335E+00  2.30971273E+00 -1.55594235E-16
 -1.27052335E+00  2.30971273E+00 -1.55594235E-16  2.29515554E+00  4.08443013E+00
  0.00000000E+00  2.29515554E+00  4.08443013E+00  0.00000000E+00  2.29515554E+00
  4.08443013E+00  0.00000000E+00  2.29515554E+00  4.08443013E+00  0.00000000E+00
  2.29515554E+00  4.08443013E+00  0.00000000E+00  4.68479802E+00 -5.45520634E-02
 -2.92646802E-16  4.68479802E+00 -5.45520634E-02 -2.92646802E-16  4.68479802E+00
 -5.45520634E-02 -2.92646802E-16  4.68479802E+00 -5.45520634E-02 -2.92646802E-16
  4.68479802E+00 -5.45520634E-02 -2.92646802E-16  2.38964248E+00 -4.02987806E+00
  0.00000000E+00  2.38964248E+00 -4.02987806E+00  0.00000000E+00  2.38964248E+00
 -4.02987806E+00  0.00000000E+00  2.38964248E+00 -4.02987806E+00  0.00000000E+00
  2.38964248E+00 -4.02987806E+00  0.00000000E+00 -2.38964248E+00 -4.02987806E+00
  5.73722290E-16 -2.38964248E+00 -4.02987806E+00  5.73722290E-16 -2.38964248E+00
 -4.02987806E+00  5.73722290E-16 -2.38964248E+00 -4.02987806E+00  5.73722290E-16
 -2.38964248E+00 -4.02987806E+00  5.73722290E-16 -4.68479802E+00 -5.45520634E-02
  0.00000000E+00 -4.68479802E+00 -5.45520634E-02  0.00000000E+00 -4.68479802E+00
 -5.45520634E-02  0.00000000E+00 -4.68479802E+00 -5.45520634E-02  0.00000000E+00
 -4.68479802E+00 -5.45520634E-02  0.00000000E+00 -2.29515554E+00  4.08443013E+00
 -2.81075488E-16 -2.29515554E+00  4.08443013E+00 -2.81075488E-16 -2.29515554E+00
  4.08443013E+00 -2.81075488E-16 -2.29515554E+00  4.08443013E+00 -2.81075488E-16
 -2.29515554E+00  4.08443013E+00 -2.81075488E-16
Constraint Structure                       R   N=          36
  1.27052335E+00  2.30971273E+00  0.00000000E+00  2.63553157E+00 -5.45508658E-02
 -1.67165295E-16  1.36500822E+00 -2.25516186E+00  0.00000000E+00 -1.36500822E+00
 -2.25516186E+00  3.22759530E-16 -2.63553157E+00 -5.45508658E-02  0.00000000E+00
 -1.27052335E+00  2.30971273E+00 -1.55594235E-16  2.29515554E+00  4.08443013E+00
  0.00000000E+00  4.68479802E+00 -5.45520634E-02 -2.92646802E-16  2.38964248E+00
 -4.02987806E+00  0.00000000E+00 -2.38964248E+00 -4.02987806E+00  5.73722290E-16
 -4.68479802E+00 -5.45520634E-02  0.00000000E+00 -2.29515554E+00  4.08443013E+00
 -2.81075488E-16
Num ILSW                                   I              100
ILSW                                       I   N=         100
           0           0           0           0           2           0
           0           0           0           0           0          -1
           0           0           0           0           0           0
           0           0           0           0           0           0
           1           0           0           0           0           0
           0           0      100000           0          -1           0
           0           0           0           0           0           0
           0           0           0           1           0           0
           0           0           1           0           0           0
           0           0           4          40           0           0
           0           0           0           0           0           0
           0           0           0           0           0           0
           0           0           0           0           0           0
           0           0           0           0           0           0
           0           0           0           0           0           0
           0           0           0           0           0           0
           0           0           0           0
Num RLSW                                   I               40
RLSW                                       R   N=          40
  1.00000000E+00  1.00000000E+00  1.00000000E+00  1.00000000E+00  1.00000000E+00
  0.00000000E+00  0.00000000E+00  1.00000000E+00  0.00000000E+00  0.00000000E+00
  0.00000000E+00  0.00000000E+00  1.00000000E+00  0.00000000E+00  0.00000000E+00
  0.00000000E+00  0.00000000E+00  1.00000000E+00  0.00000000E+00  0.00000000E+00
  0.00000000E+00  0.00000000E+00  1.00000000E+00  0.00000000E+00  0.00000000E+00
  0.00000000E+00  0.00000000E+00  1.00000000E+00  0.00000000E+00  0.00000000E+00
  0.00000000E+00  0.00000000E+00  0.00000000E+00  0.00000000E+00  0.00000000E+00
  0.00000000E+00  0.00000000E+00  0.00000000E+00  1.00000000E+00  1.00000000E+00
MxBond                                     I                3
NBond                                      I   N=          12
           3           3           3           3           3           3
           1           1           1           1           1           1
IBond                                      I   N=          36
           2           6           7           1           3           8
           2           4           9           3           5          10
           4           6          11           1           5          12
           1           0           0           2           0           0
           3           0           0           4           0           0
           5           0           0           6           0           0
RBond                                      R   N=          36
  1.00000000E+00  2.00000000E+00  1.00000000E+00  1.00000000E+00  2.00000000E+00
  1.00000000E+00  2.00000000E+00  1.00000000E+00  1.00000000E+00  1.00000000E+00
  2.00000000E+00  1.00000000E+00  2.00000000E+00  1.00000000E+00  1.00000000E+00
  2.00000000E+00  1.00000000E+00  1.00000000E+00  1.00000000E+00  0.00000000E+00
  0.00000000E+00  1.00000000E+00  0.00000000E+00  0.00000000E+00  1.00000000E+00
  0.00000000E+00  0.00000000E+00  1.00000000E+00  0.00000000E+00  0.00000000E+00
  1.00000000E+00  0.00000000E+00  0.00000000E+00  1.00000000E+00  0.00000000E+00
  0.00000000E+00
Virial Ratio                               R      2.000959009003526E+00
SCF Energy                                 R     -2.307500416403525E+02
MP2 Energy                                 R     -2.315750994742987E+02
Total Energy                               R     -2.315750994742987E+02
Post-SCF wavefunction norm                 R      1.141964171518280E+00
RMS Density                                R      7.217446116222355E-09
External E-field                           R   N=          35
  0.00000000E+00  0.00000000E+00  0.00000000E+00  0.00000000E+00  0.00000000E+00
  0.00000000E+00  0.00000000E+00  0.00000000E+00  0.00000000E+00  0.00000000E+00
  0.00000000E+00  0.00000000E+00  0.00000000E+00  0.00000000E+00  0.00000000E+00
  0.00000000E+00  0.00000000E+00  0.00000000E+00  0.00000000E+00  0.00000000E+00
  0.00000000E+00  0.00000000E+00  0.00000000E+00  0.00000000E+00  0.00000000E+00
  0.00000000E+00  0.00000000E+00  0.00000000E+00  0.00000000E+00  0.00000000E+00
  0.00000000E+00  0.00000000E+00  0.00000000E+00  0.00000000E+00  0.00000000E+00
IOpCl                                      I                0
IROHF                                      I                0
Alpha Orbital Energies                     R   N=         174
 -1.12374483E+01 -1.12369102E+01 -1.12369102E+01 -1.12355171E+01 -1.12355171E+01
 -1.12349457E+01 -1.15247143E+00 -1.01861759E+00 -1.01861759E+00 -8.22412347E-01
 -8.22412347E-01 -7.10442232E-01 -6.43509391E-01 -6.20006556E-01 -5.91091542E-01
 -5.91091542E-01 -5.02154416E-01 -4.92551314E-01 -4.92551314E-01 -3.40481630E-01
 -3.40481630E-01  4.21771735E-02  4.89926098E-02  4.89926098E-02  6.62955827E-02
  6.62955827E-02  8.81081115E-02  1.11145405E-01  1.11145405E-01  1.29162451E-01
  1.52943618E-01  1.52943618E-01  1.58072656E-01  1.62869440E-01  1.81074311E-01
  1.81074311E-01  1.83506582E-01  1.83506582E-01  1.92626817E-01  2.09254449E-01
  2.12339983E-01  2.12339983E-01  2.17208117E-01  2.17525683E-01  2.17525683E-01
  2.28243247E-01  2.28243247E-01  2.50368894E-01  2.50368894E-01  2.88925613E-01
  2.88925613E-01  3.03101712E-01  3.33124942E-01  3.34323480E-01  3.69417067E-01
  4.05750566E-01  4.05750566E-01  4.28678599E-01  4.28678599E-01  4.39438215E-01
  4.92440018E-01  4.92440018E-01  5.16162595E-01  5.16162595E-01  5.98608836E-01
  6.14851603E-01  7.13734304E-01  7.15196356E-01  7.18296082E-01  7.18296082E-01
  7.55546796E-01  7.55546796E-01  7.56382110E-01  7.56382110E-01  7.63065385E-01
  7.97928497E-01  8.21553474E-01  8.21553474E-01  8.86897638E-01  9.20870574E-01
  9.20870574E-01  9.74675984E-01  9.74675984E-01  9.75543566E-01  1.01651283E+00
  1.01651283E+00  1.01808754E+00  1.05991786E+00  1.05991786E+00  1.08720647E+00
  1.12335425E+00  1.12335425E+00  1.15633454E+00  1.16563025E+00  1.21806594E+00
  1.21806594E+00  1.25769375E+00  1.32260989E+00  1.32260989E+00  1.39466414E+00
  1.39466414E+00  1.52311610E+00  1.55421789E+00  1.69976621E+00  1.78583419E+00
  1.78583419E+00  1.80896891E+00  1.82547363E+00  1.84273524E+00  1.84273524E+00
  1.89357663E+00  1.89357663E+00  1.94558118E+00  1.94558118E+00  1.99090823E+00
  2.05557066E+00  2.05557066E+00  2.10551437E+00  2.10551437E+00  2.12985496E+00
  2.23772690E+00  2.23772690E+00  2.23966933E+00  2.24220006E+00  2.24220006E+00
  2.29835284E+00  2.35923416E+00  2.35923416E+00  2.38151426E+00  2.38151426E+00
  2.63876183E+00  2.66319803E+00  2.73806706E+00  2.73806706E+00  2.74430672E+00
  2.81712315E+00  2.81712315E+00  2.95739023E+00  2.95739023E+00  2.98784164E+00
  2.99454450E+00  3.01907784E+00  3.01907784E+00  3.05002520E+00  3.05002520E+00
  3.05991996E+00  3.08982246E+00  3.19168682E+00  3.19168682E+00  3.26864073E+00
  3.29446333E+00  3.29446333E+00  3.32545283E+00  3.32545283E+00  3.48122009E+00
  3.52791960E+00  3.73997578E+00  3.73997578E+00  3.94146249E+00  3.94553888E+00
  3.94553888E+00  4.07430573E+00  4.40053827E+00  4.40053827E+00  4.49192225E+00
  4.56477750E+00  4.56477750E+00  5.25475759E+00  2.47432825E+01  2.50375645E+01
  2.50375645E+01  2.53851785E+01  2.53851785E+01  2.54190721E+01
Alpha MO coefficients                      R   N=       30276
  2.29900774E-01  1.90358321E-01  1.18541434E-05 -4.46665483E-05  0.00000000E+00
  2.03693342E-03 -1.44462199E-04 -1.33160920E-04  0.00000000E+00 -3.98463433E-04
  1.14850094E-05  6.29743629E-06  0.00000000E+00 -9.63769657E-05 -1.04368405E-04
 -1.66286803E-04  0.00000000E+00 -1.18971639E-04  0.00000000E+00  0.00000000E+00
  7.74271838E-05 -3.52079878E-05  2.29900774E-01  1.90358321E-01 -3.27552938E-05
  3.25992635E-05  0.00000000E+00  2.03693342E-03 -1.87551839E-04 -5.85274746E-05
  0.00000000E+00 -3.98463434E-04  1.11962441E-05  6.79759190E-06  0.00000000E+00
 -9.63769518E-05 -1.96192804E-04 -7.24229131E-06  0.00000000E+00 -1.18971639E-04
  0.00000000E+00  0.00000000E+00 -6.92046037E-05  4.94499143E-05  2.29900774E-01
  1.90358321E-01 -4.46094372E-05  1.20672848E-05  0.00000000E+00  2.03693342E-03
 -4.30896398E-05  1.91688395E-04  0.00000000E+00 -3.98463433E-04 -2.88764925E-07
 -1.30950280E-05  0.00000000E+00 -9.63769732E-05 -9.18243944E-05  1.73529091E-04
  0.00000000E+00 -1.18971639E-04  0.00000000E+00  0.00000000E+00 -8.22258011E-06
  8.46579020E-05  2.29900774E-01  1.90358321E-01  4.46094372E-05  1.20672848E-05
  0.00000000E+00  2.03693342E-03  4.30896398E-05  1.91688395E-04  0.00000000E+00
 -3.98463433E-04  2.88764925E-07 -1.30950280E-05  0.00000000E+00 -9.63769732E-05
  9.18243944E-05  1.73529091E-04  0.00000000E+00 -1.18971639E-04  0.00000000E+00
  0.00000000E+00 -8.22258011E-06 -8.46579020E-05  2.29900774E-01  1.90358321E-01
  3.27552938E-05  3.25992635E-05  0.00000000E+00  2.03693342E-03  1.87551839E-04
 -5.85274746E-05  0.00000000E+00 -3.98463434E-04 -1.11962441E-05  6.79759190E-06
  0.00000000E+00 -9.63769518E-05  1.96192804E-04 -7.24229131E-06  0.00000000E+00
 -1.18971639E-04  0.00000000E+00  0.00000000E+00 -6.92046037E-05 -4.94499143E-05
  2.29900774E-01  1.90358321E-01 -1.18541434E-05 -4.46665483E-05  0.00000000E+00
  2.03693342E-03  1.44462199E-04 -1.33160920E-04  0.00000000E+00 -3.98463433E-04
 -1.14850094E-05  6.29743629E-06  0.00000000E+00 -9.63769657E-05  1.04368405E-04
 -1.66286803E-04  0.00000000E+00 -1.18971639E-04  0.00000000E+00  0.00000000E+00
  7.74271838E-05  3.52079878E-05  1.78274539E-04 -1.34943067E-05  2.48672416E-04
  8.87601481E-05 -2.17394125E-05 -2.49242560E-05  0.00000000E+00  1.78274539E-04
 -1.34943066E-05  2.48672416E-04  8.87601504E-05 -3.24547452E-05 -6.36475545E-06
  0.00000000E+00  1.78274539E-04 -1.34943067E-05  2.48672416E-04  8.87601485E-05
 -1.07153327E-05  3.12890115E-05  0.00000000E+00  1.78274539E-04 -1.34943067E-05
  2.48672416E-04  8.87601485E-05  1.07153327E-05  3.12890115E-05  0.00000000E+00
  1.78274539E-04 -1.34943066E-05  2.48672416E-04  8.87601504E-05  3.24547452E-05
 -6.36475545E-06  0.00000000E+00  1.78274539E-04 -1.34943067E-05  2.48672416E-04
  8.87601481E-05  2.17394125E-05 -2.49242560E-05  0.00000000E+00  3.08649697E-01
  2.55612819E-01 -5.06015493E-05  1.53633185E-05  0.00000000E+00  2.50306099E-03
 -2.55739040E-04  6.49817427E-05  0.00000000E+00 -4.54378673E-04  1.40086083E-04
 -1.14621051E-05  0.00000000E+00 -2.72997081E-04 -1.16642662E-03 -9.65098148E-04
  0.00000000E+00 -1.73725876E-04  0.00000000E+00  0.00000000E+00  1.70823003E-04
  2.47412362E-05 -6.57061071E-02 -5.44330997E-02  1.20384592E-06  1.57583062E-04
  0.00000000E+00 -4.64267099E-04 -6.80670115E-05  2.03973957E-04  0.00000000E+00
  3.41827781E-04 -1.56341174E-04 -2.45023477E-04  0.00000000E+00 -2.39480160E-03
  7.82754840E-04  1.23867151E-03  0.00000000E+00  2.26674476E-05  0.00000000E+00
  0.00000000E+00 -1.38461552E-05 -1.38368384E-04 -2.42943590E-01 -2.01179720E-01
  9.72632133E-05  4.36935243E-05  0.00000000E+00 -2.03879389E-03  2.65347747E-05
 -1.45946416E-04  0.00000000E+00  1.12550892E-04 -5.40564530E-05 -1.42320112E-04
  0.00000000E+00  2.66779868E-03  9.33929777E-04 -1.95482830E-04  0.00000000E+00
  1.51058428E-04  0.00000000E+00  0.00000000E+00 -1.99155723E-05 -7.83733726E-05
 -2.42943590E-01 -2.01179720E-01 -9.72632133E-05  4.36935243E-05  0.00000000E+00
 -2.03879389E-03 -2.65347747E-05 -1.45946416E-04  0.00000000E+00  1.12550892E-04
  5.40564530E-05 -1.42320112E-04  0.00000000E+00  2.66779868E-03 -9.33929777E-04
 -1.95482830E-04  0.00000000E+00  1.51058428E-04  0.00000000E+00  0.00000000E+00
 -1.99155723E-05  7.83733726E-05 -6.57061071E-02 -5.44330997E-02 -1.20384592E-06
  1.57583062E-04  0.00000000E+00 -4.64267099E-04  6.80670115E-05  2.03973957E-04
  0.00000000E+00  3.41827781E-04  1.56341174E-04 -2.45023477E-04  0.00000000E+00
 -2.39480160E-03 -7.82754840E-04  1.23867151E-03  0.00000000E+00  2.26674476E-05
  0.00000000E+00  0.00000000E+00 -1.38461552E-05  1.38368384E-04  3.08649697E-01
  2.55612819E-01  5.06015493E-05  1.53633185E-05  0.00000000E+00  2.50306099E-03
  2.55739040E-04  6.49817427E-05  0.00000000E+00 -4.54378673E-04 -1.40086083E-04