Boat-20                                                                 
SP        RMP2-FC                                                     6-311++G(d,p)       
Number of atoms                            I               12
Info1-9                                    I   N=           9
          23          21           0           0           0         110
           1           2           1
Charge                                     I                0
Multiplicity                               I                1
Number of electrons                        I               42
Number of alpha electrons                  I               21
Number of beta electrons                   I               21
Number of basis functions                  I              174
Number of independent functions            I              174
Number of point charges in /Mol/           I                0
Number of translation vectors              I                0
Atomic numbers                             I   N=          12
           6           6           6           6           6           6
           1           1           1           1           1           1
Nuclear charges                            R   N=          12
  6.00000000E+00  6.00000000E+00  6.00000000E+00  6.00000000E+00  6.00000000E+00
  6.00000000E+00  1.00000000E+00  1.00000000E+00  1.00000000E+00  1.00000000E+00
  1.00000000E+00  1.00000000E+00
Current cartesian coordinates              R   N=          36
  5.64880042E-02  2.63106496E+00 -1.53253730E-01 -2.25771603E+00  1.35185720E+00
 -1.53253730E-01 -2.25771603E+00 -1.24792721E+00  3.04439829E-01 -5.64880042E-02
 -2.63106496E+00 -1.53253730E-01  2.25771603E+00 -1.35185720E+00 -1.53253730E-01
  2.25771603E+00  1.24792721E+00  3.04439829E-01  1.16090188E-01  4.67608657E+00
 -2.56086957E-01 -4.02116875E+00  2.38907532E+00 -2.56703008E-01 -4.04244159E+00
 -2.23431936E+00  5.25195746E-01 -1.16090188E-01 -4.67608657E+00 -2.56086957E-01
  4.02116875E+00 -2.38907532E+00 -2.56703008E-01  4.04244159E+00  2.23431936E+00
  5.25195746E-01
Force Field                                I                0
Int Atom Types                             I   N=          12
           0           0           0           0           0           0
           0           0           0           0           0           0
MM charges                                 R   N=          12
  0.00000000E+00  0.00000000E+00  0.00000000E+00  0.00000000E+00  0.00000000E+00
  0.00000000E+00  0.00000000E+00  0.00000000E+00  0.00000000E+00  0.00000000E+00
  0.00000000E+00  0.00000000E+00
Integer atomic weights                     I   N=          12
          12          12          12          12          12          12
           1           1           1           1           1           1
Real atomic weights                        R   N=          12
  1.20000000E+01  1.20000000E+01  1.20000000E+01  1.20000000E+01  1.20000000E+01
  1.20000000E+01  1.00782504E+00  1.00782504E+00  1.00782504E+00  1.00782504E+00
  1.00782504E+00  1.00782504E+00
Atom fragment info                         I   N=          12
           0           0           0           0           0           0
           0           0           0           0           0           0
Atom residue num                           I   N=          12
           0           0           0           0           0           0
           0           0           0           0           0           0
Nuclear spins                              I   N=          12
           0           0           0           0           0           0
           1           1           1           1           1           1
Nuclear ZEff                               R   N=          12
 -3.60000000E+00 -3.60000000E+00 -3.60000000E+00 -3.60000000E+00 -3.60000000E+00
 -3.60000000E+00 -1.00000000E+00 -1.00000000E+00 -1.00000000E+00 -1.00000000E+00
 -1.00000000E+00 -1.00000000E+00
Nuclear QMom                               R   N=          12
  0.00000000E+00  0.00000000E+00  0.00000000E+00  0.00000000E+00  0.00000000E+00
  0.00000000E+00  0.00000000E+00  0.00000000E+00  0.00000000E+00  0.00000000E+00
  0.00000000E+00  0.00000000E+00
Nuclear GFac                               R   N=          12
  0.00000000E+00  0.00000000E+00  0.00000000E+00  0.00000000E+00  0.00000000E+00
  0.00000000E+00  2.79284600E+00  2.79284600E+00  2.79284600E+00  2.79284600E+00
  2.79284600E+00  2.79284600E+00
MicOpt                                     I   N=          12
          -1          -1          -1          -1          -1          -1
          -1          -1          -1          -1          -1          -1
Number of contracted shells                I               66
Number of primitive shells                 I              120
Pure/Cartesian d shells                    I                0
Pure/Cartesian f shells                    I                0
Highest angular momentum                   I                2
Largest degree of contraction              I                6
Shell types                                I   N=          66
           0          -1          -1          -1          -1          -2
           0          -1          -1          -1          -1          -2
           0          -1          -1          -1          -1          -2
           0          -1          -1          -1          -1          -2
           0          -1          -1          -1          -1          -2
           0          -1          -1          -1          -1          -2
           0           0           0           0           1           0
           0           0           0           1           0           0
           0           0           1           0           0           0
           0           1           0           0           0           0
           1           0           0           0           0           1
Number of primitives per shell             I   N=          66
           6           3           1           1           1           1
           6           3           1           1           1           1
           6           3           1           1           1           1
           6           3           1           1           1           1
           6           3           1           1           1           1
           6           3           1           1           1           1
           3           1           1           1           1           3
           1           1           1           1           3           1
           1           1           1           3           1           1
           1           1           3           1           1           1
           1           3           1           1           1           1
Shell to atom map                          I   N=          66
           1           1           1           1           1           1
           2           2           2           2           2           2
           3           3           3           3           3           3
           4           4           4           4           4           4
           5           5           5           5           5           5
           6           6           6           6           6           6
           7           7           7           7           7           8
           8           8           8           8           9           9
           9           9           9          10          10          10
          10          10          11          11          11          11
          11          12          12          12          12          12
Primitive exponents                        R   N=         120
  4.56324000E+03  6.82024000E+02  1.54973000E+02  4.44553000E+01  1.30290000E+01
  1.82773000E+00  2.09642000E+01  4.80331000E+00  1.45933000E+00  4.83456000E-01
  1.45585000E-01  4.38000000E-02  6.26000000E-01  4.56324000E+03  6.82024000E+02
  1.54973000E+02  4.44553000E+01  1.30290000E+01  1.82773000E+00  2.09642000E+01
  4.80331000E+00  1.45933000E+00  4.83456000E-01  1.45585000E-01  4.38000000E-02
  6.26000000E-01  4.56324000E+03  6.82024000E+02  1.54973000E+02  4.44553000E+01
  1.30290000E+01  1.82773000E+00  2.09642000E+01  4.80331000E+00  1.45933000E+00
  4.83456000E-01  1.45585000E-01  4.38000000E-02  6.26000000E-01  4.56324000E+03
  6.82024000E+02  1.54973000E+02  4.44553000E+01  1.30290000E+01  1.82773000E+00
  2.09642000E+01  4.80331000E+00  1.45933000E+00  4.83456000E-01  1.45585000E-01
  4.38000000E-02  6.26000000E-01  4.56324000E+03  6.82024000E+02  1.54973000E+02
  4.44553000E+01  1.30290000E+01  1.82773000E+00  2.09642000E+01  4.80331000E+00
  1.45933000E+00  4.83456000E-01  1.45585000E-01  4.38000000E-02  6.26000000E-01
  4.56324000E+03  6.82024000E+02  1.54973000E+02  4.44553000E+01  1.30290000E+01
  1.82773000E+00  2.09642000E+01  4.80331000E+00  1.45933000E+00  4.83456000E-01
  1.45585000E-01  4.38000000E-02  6.26000000E-01  3.38650000E+01  5.09479000E+00
  1.15879000E+00  3.25840000E-01  1.02741000E-01  3.60000000E-02  7.50000000E-01
  3.38650000E+01  5.09479000E+00  1.15879000E+00  3.25840000E-01  1.02741000E-01
  3.60000000E-02  7.50000000E-01  3.38650000E+01  5.09479000E+00  1.15879000E+00
  3.25840000E-01  1.02741000E-01  3.60000000E-02  7.50000000E-01  3.38650000E+01
  5.09479000E+00  1.15879000E+00  3.25840000E-01  1.02741000E-01  3.60000000E-02
  7.50000000E-01  3.38650000E+01  5.09479000E+00  1.15879000E+00  3.25840000E-01
  1.02741000E-01  3.60000000E-02  7.50000000E-01  3.38650000E+01  5.09479000E+00
  1.15879000E+00  3.25840000E-01  1.02741000E-01  3.60000000E-02  7.50000000E-01
Contraction coefficients                   R   N=         120
  1.96665025E-03  1.52306019E-02  7.61269097E-02  2.60801033E-01  6.16462078E-01
  2.21006028E-01  1.14660081E-01  9.19999648E-01 -3.03068213E-03  1.00000000E+00
  1.00000000E+00  1.00000000E+00  1.00000000E+00  1.96665025E-03  1.52306019E-02
  7.61269097E-02  2.60801033E-01  6.16462078E-01  2.21006028E-01  1.14660081E-01
  9.19999648E-01 -3.03068213E-03  1.00000000E+00  1.00000000E+00  1.00000000E+00
  1.00000000E+00  1.96665025E-03  1.52306019E-02  7.61269097E-02  2.60801033E-01
  6.16462078E-01  2.21006028E-01  1.14660081E-01  9.19999648E-01 -3.03068213E-03
  1.00000000E+00  1.00000000E+00  1.00000000E+00  1.00000000E+00  1.96665025E-03
  1.52306019E-02  7.61269097E-02  2.60801033E-01  6.16462078E-01  2.21006028E-01
  1.14660081E-01  9.19999648E-01 -3.03068213E-03  1.00000000E+00  1.00000000E+00
  1.00000000E+00  1.00000000E+00  1.96665025E-03  1.52306019E-02  7.61269097E-02
  2.60801033E-01  6.16462078E-01  2.21006028E-01  1.14660081E-01  9.19999648E-01
 -3.03068213E-03  1.00000000E+00  1.00000000E+00  1.00000000E+00  1.00000000E+00
  1.96665025E-03  1.52306019E-02  7.61269097E-02  2.60801033E-01  6.16462078E-01
  2.21006028E-01  1.14660081E-01  9.19999648E-01 -3.03068213E-03  1.00000000E+00
  1.00000000E+00  1.00000000E+00  1.00000000E+00  2.54938145E-02  1.90373109E-01
  8.52161486E-01  1.00000000E+00  1.00000000E+00  1.00000000E+00  1.00000000E+00
  2.54938145E-02  1.90373109E-01  8.52161486E-01  1.00000000E+00  1.00000000E+00
  1.00000000E+00  1.00000000E+00  2.54938145E-02  1.90373109E-01  8.52161486E-01
  1.00000000E+00  1.00000000E+00  1.00000000E+00  1.00000000E+00  2.54938145E-02
  1.90373109E-01  8.52161486E-01  1.00000000E+00  1.00000000E+00  1.00000000E+00
  1.00000000E+00  2.54938145E-02  1.90373109E-01  8.52161486E-01  1.00000000E+00
  1.00000000E+00  1.00000000E+00  1.00000000E+00  2.54938145E-02  1.90373109E-01
  8.52161486E-01  1.00000000E+00  1.00000000E+00  1.00000000E+00  1.00000000E+00
P(S=P) Contraction coefficients            R   N=         120
  0.00000000E+00  0.00000000E+00  0.00000000E+00  0.00000000E+00  0.00000000E+00
  0.00000000E+00  4.02486927E-02  2.37593957E-01  8.15853851E-01  1.00000000E+00
  1.00000000E+00  1.00000000E+00  0.00000000E+00  0.00000000E+00  0.00000000E+00
  0.00000000E+00  0.00000000E+00  0.00000000E+00  0.00000000E+00  4.02486927E-02
  2.37593957E-01  8.15853851E-01  1.00000000E+00  1.00000000E+00  1.00000000E+00
  0.00000000E+00  0.00000000E+00  0.00000000E+00  0.00000000E+00  0.00000000E+00
  0.00000000E+00  0.00000000E+00  4.02486927E-02  2.37593957E-01  8.15853851E-01
  1.00000000E+00  1.00000000E+00  1.00000000E+00  0.00000000E+00  0.00000000E+00
  0.00000000E+00  0.00000000E+00  0.00000000E+00  0.00000000E+00  0.00000000E+00
  4.02486927E-02  2.37593957E-01  8.15853851E-01  1.00000000E+00  1.00000000E+00
  1.00000000E+00  0.00000000E+00  0.00000000E+00  0.00000000E+00  0.00000000E+00
  0.00000000E+00  0.00000000E+00  0.00000000E+00  4.02486927E-02  2.37593957E-01
  8.15853851E-01  1.00000000E+00  1.00000000E+00  1.00000000E+00  0.00000000E+00
  0.00000000E+00  0.00000000E+00  0.00000000E+00  0.00000000E+00  0.00000000E+00
  0.00000000E+00  4.02486927E-02  2.37593957E-01  8.15853851E-01  1.00000000E+00
  1.00000000E+00  1.00000000E+00  0.00000000E+00  0.00000000E+00  0.00000000E+00
  0.00000000E+00  0.00000000E+00  0.00000000E+00  0.00000000E+00  0.00000000E+00
  0.00000000E+00  0.00000000E+00  0.00000000E+00  0.00000000E+00  0.00000000E+00
  0.00000000E+00  0.00000000E+00  0.00000000E+00  0.00000000E+00  0.00000000E+00
  0.00000000E+00  0.00000000E+00  0.00000000E+00  0.00000000E+00  0.00000000E+00
  0.00000000E+00  0.00000000E+00  0.00000000E+00  0.00000000E+00  0.00000000E+00
  0.00000000E+00  0.00000000E+00  0.00000000E+00  0.00000000E+00  0.00000000E+00
  0.00000000E+00  0.00000000E+00  0.00000000E+00  0.00000000E+00  0.00000000E+00
  0.00000000E+00  0.00000000E+00  0.00000000E+00  0.00000000E+00  0.00000000E+00
Coordinates of each shell                  R   N=         198
  5.64880042E-02  2.63106496E+00 -1.53253730E-01  5.64880042E-02  2.63106496E+00
 -1.53253730E-01  5.64880042E-02  2.63106496E+00 -1.53253730E-01  5.64880042E-02
  2.63106496E+00 -1.53253730E-01  5.64880042E-02  2.63106496E+00 -1.53253730E-01
  5.64880042E-02  2.63106496E+00 -1.53253730E-01 -2.25771603E+00  1.35185720E+00
 -1.53253730E-01 -2.25771603E+00  1.35185720E+00 -1.53253730E-01 -2.25771603E+00
  1.35185720E+00 -1.53253730E-01 -2.25771603E+00  1.35185720E+00 -1.53253730E-01
 -2.25771603E+00  1.35185720E+00 -1.53253730E-01 -2.25771603E+00  1.35185720E+00
 -1.53253730E-01 -2.25771603E+00 -1.24792721E+00  3.04439829E-01 -2.25771603E+00
 -1.24792721E+00  3.04439829E-01 -2.25771603E+00 -1.24792721E+00  3.04439829E-01
 -2.25771603E+00 -1.24792721E+00  3.04439829E-01 -2.25771603E+00 -1.24792721E+00
  3.04439829E-01 -2.25771603E+00 -1.24792721E+00  3.04439829E-01 -5.64880042E-02
 -2.63106496E+00 -1.53253730E-01 -5.64880042E-02 -2.63106496E+00 -1.53253730E-01
 -5.64880042E-02 -2.63106496E+00 -1.53253730E-01 -5.64880042E-02 -2.63106496E+00
 -1.53253730E-01 -5.64880042E-02 -2.63106496E+00 -1.53253730E-01 -5.64880042E-02
 -2.63106496E+00 -1.53253730E-01  2.25771603E+00 -1.35185720E+00 -1.53253730E-01
  2.25771603E+00 -1.35185720E+00 -1.53253730E-01  2.25771603E+00 -1.35185720E+00
 -1.53253730E-01  2.25771603E+00 -1.35185720E+00 -1.53253730E-01  2.25771603E+00
 -1.35185720E+00 -1.53253730E-01  2.25771603E+00 -1.35185720E+00 -1.53253730E-01
  2.25771603E+00  1.24792721E+00  3.04439829E-01  2.25771603E+00  1.24792721E+00
  3.04439829E-01  2.25771603E+00  1.24792721E+00  3.04439829E-01  2.25771603E+00
  1.24792721E+00  3.04439829E-01  2.25771603E+00  1.24792721E+00  3.04439829E-01
  2.25771603E+00  1.24792721E+00  3.04439829E-01  1.16090188E-01  4.67608657E+00
 -2.56086957E-01  1.16090188E-01  4.67608657E+00 -2.56086957E-01  1.16090188E-01
  4.67608657E+00 -2.56086957E-01  1.16090188E-01  4.67608657E+00 -2.56086957E-01
  1.16090188E-01  4.67608657E+00 -2.56086957E-01 -4.02116875E+00  2.38907532E+00
 -2.56703008E-01 -4.02116875E+00  2.38907532E+00 -2.56703008E-01 -4.02116875E+00
  2.38907532E+00 -2.56703008E-01 -4.02116875E+00  2.38907532E+00 -2.56703008E-01
 -4.02116875E+00  2.38907532E+00 -2.56703008E-01 -4.04244159E+00 -2.23431936E+00
  5.25195746E-01 -4.04244159E+00 -2.23431936E+00  5.25195746E-01 -4.04244159E+00
 -2.23431936E+00  5.25195746E-01 -4.04244159E+00 -2.23431936E+00  5.25195746E-01
 -4.04244159E+00 -2.23431936E+00  5.25195746E-01 -1.16090188E-01 -4.67608657E+00
 -2.56086957E-01 -1.16090188E-01 -4.67608657E+00 -2.56086957E-01 -1.16090188E-01
 -4.67608657E+00 -2.56086957E-01 -1.16090188E-01 -4.67608657E+00 -2.56086957E-01
 -1.16090188E-01 -4.67608657E+00 -2.56086957E-01  4.02116875E+00 -2.38907532E+00
 -2.56703008E-01  4.02116875E+00 -2.38907532E+00 -2.56703008E-01  4.02116875E+00
 -2.38907532E+00 -2.56703008E-01  4.02116875E+00 -2.38907532E+00 -2.56703008E-01
  4.02116875E+00 -2.38907532E+00 -2.56703008E-01  4.04244159E+00  2.23431936E+00
  5.25195746E-01  4.04244159E+00  2.23431936E+00  5.25195746E-01  4.04244159E+00
  2.23431936E+00  5.25195746E-01  4.04244159E+00  2.23431936E+00  5.25195746E-01
  4.04244159E+00  2.23431936E+00  5.25195746E-01
Constraint Structure                       R   N=          36
  5.64880042E-02  2.63106496E+00 -1.53253730E-01 -2.25771603E+00  1.35185720E+00
 -1.53253730E-01 -2.25771603E+00 -1.24792721E+00  3.04439829E-01 -5.64880042E-02
 -2.63106496E+00 -1.53253730E-01  2.25771603E+00 -1.35185720E+00 -1.53253730E-01
  2.25771603E+00  1.24792721E+00  3.04439829E-01  1.16090188E-01  4.67608657E+00
 -2.56086957E-01 -4.02116875E+00  2.38907532E+00 -2.56703008E-01 -4.04244159E+00
 -2.23431936E+00  5.25195746E-01 -1.16090188E-01 -4.67608657E+00 -2.56086957E-01
  4.02116875E+00 -2.38907532E+00 -2.56703008E-01  4.04244159E+00  2.23431936E+00
  5.25195746E-01
Num ILSW                                   I              100
ILSW                                       I   N=         100
           0           0           0           0           2           0
           0           0           0           0           0          -1
           0           0           0           0           0           0
           0           0           0           0           0           0
           1           0           0           0           0           0
           0           0      100000           0          -1           0
           0           0           0           0           0           0
           0           0           0           1           0           0
           0           0           1           0           0           0
           0           0           4          40           0           0
           0           0           0           0           0           0
           0           0           0           0           0           0
           0           0           0           0           0           0
           0           0           0           0           0           0
           0           0           0           0           0           0
           0           0           0           0           0           0
           0           0           0           0
Num RLSW                                   I               40
RLSW                                       R   N=          40
  1.00000000E+00  1.00000000E+00  1.00000000E+00  1.00000000E+00  1.00000000E+00
  0.00000000E+00  0.00000000E+00  1.00000000E+00  0.00000000E+00  0.00000000E+00
  0.00000000E+00  0.00000000E+00  1.00000000E+00  0.00000000E+00  0.00000000E+00
  0.00000000E+00  0.00000000E+00  1.00000000E+00  0.00000000E+00  0.00000000E+00
  0.00000000E+00  0.00000000E+00  1.00000000E+00  0.00000000E+00  0.00000000E+00
  0.00000000E+00  0.00000000E+00  1.00000000E+00  0.00000000E+00  0.00000000E+00
  0.00000000E+00  0.00000000E+00  0.00000000E+00  0.00000000E+00  0.00000000E+00
  0.00000000E+00  0.00000000E+00  0.00000000E+00  1.00000000E+00  1.00000000E+00
MxBond                                     I                3
NBond                                      I   N=          12
           3           3           3           3           3           3
           1           1           1           1           1           1
IBond                                      I   N=          36
           2           6           7           1           3           8
           2           4           9           3           5          10
           4           6          11           1           5          12
           1           0           0           2           0           0
           3           0           0           4           0           0
           5           0           0           6           0           0
RBond                                      R   N=          36
  1.50000000E+00  1.50000000E+00  1.00000000E+00  1.50000000E+00  1.50000000E+00
  1.00000000E+00  1.50000000E+00  1.50000000E+00  1.00000000E+00  1.50000000E+00
  1.50000000E+00  1.00000000E+00  1.50000000E+00  1.50000000E+00  1.00000000E+00
  1.50000000E+00  1.50000000E+00  1.00000000E+00  1.00000000E+00  0.00000000E+00
  0.00000000E+00  1.00000000E+00  0.00000000E+00  0.00000000E+00  1.00000000E+00
  0.00000000E+00  0.00000000E+00  1.00000000E+00  0.00000000E+00  0.00000000E+00
  1.00000000E+00  0.00000000E+00  0.00000000E+00  1.00000000E+00  0.00000000E+00
  0.00000000E+00
Virial Ratio                               R      2.001292564231979E+00
SCF Energy                                 R     -2.307385936791499E+02
MP2 Energy                                 R     -2.315712401130409E+02
Total Energy                               R     -2.315712401130409E+02
Post-SCF wavefunction norm                 R      1.145001973567466E+00
RMS Density                                R      1.623353694669588E-09
External E-field                           R   N=          35
  0.00000000E+00  0.00000000E+00  0.00000000E+00  0.00000000E+00  0.00000000E+00
  0.00000000E+00  0.00000000E+00  0.00000000E+00  0.00000000E+00  0.00000000E+00
  0.00000000E+00  0.00000000E+00  0.00000000E+00  0.00000000E+00  0.00000000E+00
  0.00000000E+00  0.00000000E+00  0.00000000E+00  0.00000000E+00  0.00000000E+00
  0.00000000E+00  0.00000000E+00  0.00000000E+00  0.00000000E+00  0.00000000E+00
  0.00000000E+00  0.00000000E+00  0.00000000E+00  0.00000000E+00  0.00000000E+00
  0.00000000E+00  0.00000000E+00  0.00000000E+00  0.00000000E+00  0.00000000E+00
IOpCl                                      I                0
IROHF                                      I                0
Alpha Orbital Energies                     R   N=         174
 -1.12395202E+01 -1.12392099E+01 -1.12386365E+01 -1.12380051E+01 -1.12371071E+01
 -1.12368432E+01 -1.15345973E+00 -1.01505590E+00 -1.01450987E+00 -8.22666126E-01
 -8.22480906E-01 -7.10535495E-01 -6.46426738E-01 -6.15766829E-01 -5.90910398E-01
 -5.86534156E-01 -5.09451899E-01 -4.97655894E-01 -4.86598410E-01 -3.33076343E-01
 -3.32596381E-01  4.18137692E-02  4.90664215E-02  4.99601583E-02  6.61990670E-02
  7.09343935E-02  9.17005567E-02  9.82690027E-02  1.09852512E-01  1.20118467E-01
  1.43686230E-01  1.51307591E-01  1.64090103E-01  1.65698652E-01  1.79548292E-01
  1.81136830E-01  1.87173111E-01  1.90021836E-01  1.92131359E-01  1.92255623E-01
  2.09608377E-01  2.09797362E-01  2.18428716E-01  2.18443446E-01  2.20944856E-01
  2.29011317E-01  2.39859288E-01  2.40811207E-01  2.42234501E-01  2.61549205E-01
  2.66064055E-01  2.93269392E-01  3.02909152E-01  3.39303437E-01  3.44504792E-01
  3.96956029E-01  4.03226500E-01  4.12496581E-01  4.31157385E-01  4.31841617E-01
  4.68552736E-01  5.00062760E-01  5.00534939E-01  5.12660107E-01  6.05806891E-01
  6.06882174E-01  6.86296440E-01  7.09555649E-01  7.25793794E-01  7.25995708E-01
  7.44549990E-01  7.45161987E-01  7.57822294E-01  7.58169092E-01  7.66294670E-01
  8.06656801E-01  8.20963781E-01  8.22304704E-01  8.39320210E-01  8.72813414E-01
  8.94601033E-01  9.00963804E-01  9.40406238E-01  9.41725458E-01  9.55111409E-01
  9.56511348E-01  9.78534187E-01  1.02064806E+00  1.05419901E+00  1.05488865E+00
  1.08885334E+00  1.10041880E+00  1.11394037E+00  1.12848151E+00  1.21167944E+00
  1.21347389E+00  1.31126397E+00  1.34958130E+00  1.35258023E+00  1.42088840E+00
  1.42402983E+00  1.54107135E+00  1.55492743E+00  1.71764712E+00  1.76789748E+00
  1.78932403E+00  1.80138030E+00  1.83174156E+00  1.84753822E+00  1.85716863E+00
  1.90304040E+00  1.90784594E+00  1.91395604E+00  1.94074801E+00  1.99786257E+00
  2.05707017E+00  2.06401263E+00  2.10224347E+00  2.10234007E+00  2.12923860E+00
  2.13742654E+00  2.16422715E+00  2.18063165E+00  2.29388546E+00  2.32390282E+00
  2.33452752E+00  2.33544970E+00  2.36582460E+00  2.39755982E+00  2.40119506E+00
  2.60677660E+00  2.61660559E+00  2.67195996E+00  2.74415757E+00  2.75877135E+00
  2.80398674E+00  2.81613608E+00  2.83113356E+00  2.93774034E+00  2.96138445E+00
  2.97712941E+00  2.98774881E+00  3.01220492E+00  3.02813445E+00  3.04898908E+00
  3.05549543E+00  3.08443836E+00  3.18020966E+00  3.18183925E+00  3.23368065E+00
  3.28537838E+00  3.31701633E+00  3.32119551E+00  3.37493927E+00  3.48472491E+00
  3.53958937E+00  3.73289227E+00  3.77564396E+00  3.89104159E+00  3.90600602E+00
  3.92396207E+00  3.98868150E+00  4.39592660E+00  4.43033075E+00  4.47035835E+00
  4.54090626E+00  4.62063905E+00  5.11912377E+00  2.47542115E+01  2.51215794E+01
  2.51361967E+01  2.52478758E+01  2.52601416E+01  2.53127546E+01
Alpha MO coefficients                      R   N=       30276
  2.60909499E-01  2.16040516E-01 -4.01933942E-05 -1.76282726E-05  1.06688713E-05
  2.22372137E-03 -3.20754757E-05 -1.83361669E-04  3.04201349E-05 -3.77911050E-04
  3.69402318E-05  3.06405815E-05 -2.38819942E-05 -2.79633351E-04 -1.50629873E-04
 -3.24734696E-04  1.12104998E-04 -1.44888802E-04  1.66351422E-05 -1.72195410E-05
  5.92816104E-05  7.71622525E-06  2.61221160E-01  2.16298660E-01  3.61392863E-05
  2.45934993E-05  1.06686511E-05  2.22587560E-03  1.72392013E-04 -7.04003392E-05
  3.04212961E-05 -3.78348606E-04 -4.56762349E-05 -1.49810191E-05 -2.38248844E-05
 -2.71377306E-04  3.57737300E-04 -4.77116574E-05  1.12633367E-04 -1.45136433E-04
  5.79150471E-06 -2.32956690E-05 -1.87793606E-05  5.68245386E-05  1.49253293E-01
  1.23551303E-01  4.82683872E-05  2.67891153E-05 -3.02334964E-05  1.45849023E-03
  1.44642125E-04  8.00226610E-05 -4.54660304E-05 -4.23712237E-04  1.17749117E-05
  6.45528112E-06  5.67195362E-05  1.25045445E-04 -3.23912312E-06 -2.60084972E-06
 -2.24392346E-04 -4.30342198E-05 -9.66798261E-06 -5.34114858E-06 -3.42191909E-05
 -5.43876109E-05  2.60909499E-01  2.16040516E-01  4.01933942E-05  1.76282726E-05
  1.06688713E-05  2.22372137E-03  3.20754757E-05  1.83361669E-04  3.04201349E-05
 -3.77911050E-04 -3.69402318E-05 -3.06405815E-05 -2.38819942E-05 -2.79633351E-04
  1.50629873E-04  3.24734696E-04  1.12104998E-04 -1.44888802E-04 -1.66351422E-05
  1.72195410E-05  5.92816104E-05  7.71622525E-06  2.61221160E-01  2.16298660E-01
 -3.61392863E-05 -2.45934993E-05  1.06686511E-05  2.22587560E-03 -1.72392013E-04
  7.04003392E-05  3.04212961E-05 -3.78348606E-04  4.56762349E-05  1.49810191E-05
 -2.38248844E-05 -2.71377306E-04 -3.57737300E-04  4.77116574E-05  1.12633367E-04
 -1.45136433E-04 -5.79150471E-06  2.32956690E-05 -1.87793606E-05  5.68245386E-05
  1.49253293E-01  1.23551303E-01 -4.82683872E-05 -2.67891153E-05 -3.02334964E-05
  1.45849023E-03 -1.44642125E-04 -8.00226610E-05 -4.54660304E-05 -4.23712237E-04
 -1.17749117E-05 -6.45528112E-06  5.67195362E-05  1.25045445E-04  3.23912312E-06
  2.60084972E-06 -2.24392346E-04 -4.30342198E-05  9.66798261E-06  5.34114858E-06
 -3.42191909E-05 -5.43876109E-05  1.99084191E-04 -4.52658737E-05  2.87200192E-04
  1.84727571E-04 -5.87791419E-06 -2.64422231E-05  3.02660463E-06  1.99324732E-04
 -4.53972669E-05  2.87743761E-04  1.86291266E-04  2.55347325E-05 -9.08598750E-06
  3.04210403E-06  1.15968555E-04  4.51695324E-05  1.43735547E-04  2.47985820E-05
  3.40815151E-05  1.88503016E-05 -9.58586355E-06  1.99084191E-04 -4.52658737E-05
  2.87200192E-04  1.84727571E-04  5.87791419E-06  2.64422231E-05  3.02660463E-06
  1.99324732E-04 -4.53972669E-05  2.87743761E-04  1.86291266E-04 -2.55347325E-05
  9.08598750E-06  3.04210403E-06  1.15968555E-04  4.51695324E-05  1.43735547E-04
  2.47985820E-05 -3.40815151E-05 -1.88503016E-05 -9.58586355E-06  2.81296676E-01
  2.32943137E-01 -9.50448345E-05 -5.78682366E-06  7.04158416E-06  2.29475712E-03
 -7.31161555E-05 -1.20626226E-04  1.05218129E-05 -3.77575717E-04  4.81216469E-05
 -7.08198687E-06  1.06549829E-05  3.79482742E-04 -7.68036312E-05 -9.03796902E-04
  1.43764099E-05 -1.62863291E-04  2.14095748E-05 -1.27533730E-05  7.30601966E-05
  4.86934083E-05  2.81947633E-01  2.33482281E-01  5.51231268E-05  7.71407570E-05
  7.05449133E-06  2.29953996E-03  1.41153381E-04 -2.48830858E-06  1.06016002E-05
 -3.78953787E-04 -2.00003818E-05 -4.42074972E-05  1.04985117E-05  3.80186170E-04
  8.07390355E-04 -4.16362409E-04  1.54118687E-05 -1.63329579E-04 -4.81744181E-07
 -2.50266748E-05  1.20341347E-05  8.69868725E-05  2.06725893E-04  1.71138757E-04
 -8.95386679E-05  1.62171715E-04 -4.33271144E-08  1.94104996E-06 -7.09718198E-05
  1.28740665E-04 -6.27513319E-08 -1.40329404E-07  5.16364512E-05 -9.28051167E-05
 -2.02573144E-09  1.19810014E-06 -5.14143759E-05  9.57597340E-05 -5.26988106E-07
 -7.05045858E-08 -2.19965688E-06  3.90004424E-06 -8.85101963E-05  5.54788467E-05
 -2.81296676E-01 -2.32943137E-01 -9.50448345E-05 -5.78682366E-06 -7.04158416E-06
 -2.29475712E-03 -7.31161555E-05 -1.20626226E-04 -1.05218129E-05  3.77575717E-04
  4.81216469E-05 -7.08198687E-06 -1.06549829E-05 -3.79482742E-04 -7.68036312E-05
 -9.03796902E-04 -1.43764099E-05  1.62863291E-04  2.14095748E-05 -1.27533730E-05
 -7.30601966E-05 -4.86934083E-05 -2.81947633E-01 -2.33482281E-01  5.51231268E-05
  7.71407570E-05 -7.05449133E-06 -2.29953996E-03  1.41153381E-04 -2.48830858E-06
 -1.06016002E-05  3.78953787E-04 -2.00003818E-05 -4.42074972E-05 -1.04985117E-05
 -3.80186170E-04  8.07390355E-04 -4.16362409E-04 -1.54118687E-05  1.63329579E-04
 -4.81744181E-07 -2.50266748E-05 -1.20341347E-05 -8.69868725E-05 -2.06725893E-04
 -1.71138757E-04 -8.95386679E-05  1.62171715E-04  4.33271144E-08 -1.94104996E-06
 -7.09718198E-05  1.28740665E-04  6.27513319E-08  1.40329404E-07  5.16364512E-05