 Entering Gaussian System, Link 0=g09
 Initial command:
 /apps/software//g09/l1.exe /scratch/itamar/2437.cluster.abaxnet/Gau-26493.inp -scrdir=/scratch/itamar/2437.cluster.abaxnet/
 Entering Link 1 = /apps/software//g09/l1.exe PID=     26494.
  
 Copyright (c) 1988,1990,1992,1993,1995,1998,2003,2009, Gaussian, Inc.
                  All Rights Reserved.
  
 This is part of the Gaussian(R) 09 program.  It is based on
 the Gaussian(R) 03 system (copyright 2003, Gaussian, Inc.),
 the Gaussian(R) 98 system (copyright 1998, Gaussian, Inc.),
 the Gaussian(R) 94 system (copyright 1995, Gaussian, Inc.),
 the Gaussian 92(TM) system (copyright 1992, Gaussian, Inc.),
 the Gaussian 90(TM) system (copyright 1990, Gaussian, Inc.),
 the Gaussian 88(TM) system (copyright 1988, Gaussian, Inc.),
 the Gaussian 86(TM) system (copyright 1986, Carnegie Mellon
 University), and the Gaussian 82(TM) system (copyright 1983,
 Carnegie Mellon University). Gaussian is a federally registered
 trademark of Gaussian, Inc.
  
 This software contains proprietary and confidential information,
 including trade secrets, belonging to Gaussian, Inc.
  
 This software is provided under written license and may be
 used, copied, transmitted, or stored only in accord with that
 written license.
  
 The following legend is applicable only to US Government
 contracts under FAR:
  
                    RESTRICTED RIGHTS LEGEND
  
 Use, reproduction and disclosure by the US Government is
 subject to restrictions as set forth in subparagraphs (a)
 and (c) of the Commercial Computer Software - Restricted
 Rights clause in FAR 52.227-19.
  
 Gaussian, Inc.
 340 Quinnipiac St., Bldg. 40, Wallingford CT 06492
  
  
 ---------------------------------------------------------------
 Warning -- This program may not be used in any manner that
 competes with the business of Gaussian, Inc. or will provide
 assistance to any competitor of Gaussian, Inc.  The licensee
 of this program is prohibited from giving any competitor of
 Gaussian, Inc. access to this program.  By using this program,
 the user acknowledges that Gaussian, Inc. is engaged in the
 business of creating and licensing software in the field of
 computational chemistry and represents and warrants to the
 licensee that it is not a competitor of Gaussian, Inc. and that
 it will not use this program in any manner prohibited above.
 ---------------------------------------------------------------
  

 Cite this work as:
 Gaussian 09, Revision A.02,
 M. J. Frisch, G. W. Trucks, H. B. Schlegel, G. E. Scuseria, 
 M. A. Robb, J. R. Cheeseman, G. Scalmani, V. Barone, B. Mennucci, 
 G. A. Petersson, H. Nakatsuji, M. Caricato, X. Li, H. P. Hratchian, 
 A. F. Izmaylov, J. Bloino, G. Zheng, J. L. Sonnenberg, M. Hada, 
 M. Ehara, K. Toyota, R. Fukuda, J. Hasegawa, M. Ishida, T. Nakajima, 
 Y. Honda, O. Kitao, H. Nakai, T. Vreven, J. A. Montgomery, Jr., 
 J. E. Peralta, F. Ogliaro, M. Bearpark, J. J. Heyd, E. Brothers, 
 K. N. Kudin, V. N. Staroverov, R. Kobayashi, J. Normand, 
 K. Raghavachari, A. Rendell, J. C. Burant, S. S. Iyengar, J. Tomasi, 
 M. Cossi, N. Rega, J. M. Millam, M. Klene, J. E. Knox, J. B. Cross, 
 V. Bakken, C. Adamo, J. Jaramillo, R. Gomperts, R. E. Stratmann, 
 O. Yazyev, A. J. Austin, R. Cammi, C. Pomelli, J. W. Ochterski, 
 R. L. Martin, K. Morokuma, V. G. Zakrzewski, G. A. Voth, 
 P. Salvador, J. J. Dannenberg, S. Dapprich, A. D. Daniels, 
 O. Farkas, J. B. Foresman, J. V. Ortiz, J. Cioslowski, 
 and D. J. Fox, Gaussian, Inc., Wallingford CT, 2009.
 
 ******************************************
 Gaussian 09:  EM64L-G09RevA.02 11-Jun-2009
                 3-Dec-2021 
 ******************************************
 %Mem=3800MB
 %NProcShared=6
 Will use up to    6 processors via shared memory.
 %chk=/home/itamar/Aromaticity-test-set/T11-old-T12-Clar-systems/Pyrene/pyr.chk
 -----------------------------
 #P MP2/6-311++G** Density=MP2
 -----------------------------
 1/30=1,38=1/1;
 2/12=2,17=6,18=5,40=1/2;
 3/5=4,6=6,7=1111,11=9,16=1,25=1,30=1,71=1/1,2,3;
 4//1;
 5/5=2,38=5/2;
 8/6=4,10=2/1;
 9/15=1,16=-3/6;
 10/5=1,13=10/2;
 6/7=2,8=2,9=2,10=2,22=2/1;
 99/5=1,9=1/99;
 Leave Link    1 at Fri Dec  3 12:27:43 2021, MaxMem=  498073600 cpu:       0.2
 (Enter /apps/software//g09/l101.exe)
 ------
 Pyrene
 ------
 Symbolic Z-matrix:
 Charge =  0 Multiplicity = 1
 6                     0.00013  -3.51897   0. 
 6                    -1.20887  -2.82928   0. 
 6                    -1.23452  -1.42721   0. 
 6                    0.        -0.71245   0. 
 6                     1.2344   -1.42703   0. 
 6                     1.20889  -2.82932   0. 
 6                     2.46093  -0.67954   0. 
 6                     2.46093   0.67954   0. 
 6                     1.2344    1.42703   0. 
 6                    0.         0.71245   0. 
 6                    -1.23452   1.42721   0. 
 6                    -2.46096   0.67951   0. 
 6                    -2.46096  -0.67951   0. 
 6                    -1.20887   2.82928   0. 
 6                     0.00013   3.51897   0. 
 6                     1.20889   2.82932   0. 
 1                    -3.39779  -1.22693   0. 
 1                    -3.39779   1.22692   0. 
 1                    -0.00003  -4.60316   0. 
 1                    -2.14611  -3.37568   0. 
 1                     2.1463   -3.37543   0. 
 1                     3.39768  -1.22707   0. 
 1                     3.39768   1.22707   0. 
 1                    -2.14611   3.37568   0. 
 1                    -0.00003   4.60316   0. 
 1                     2.1463    3.37543   0. 
 
 NAtoms=     26 NQM=     26 NQMF=      0 NMic=      0 NMicF=      0 NTot=     26.
                    Isotopes and Nuclear Properties:
 (Nuclear quadrupole moments (NQMom) in fm**2, nuclear magnetic moments (NMagM)
  in nuclear magnetons)

  Atom         1           2           3           4           5           6           7           8           9          10
 IAtWgt=          12          12          12          12          12          12          12          12          12          12
 AtmWgt=  12.0000000  12.0000000  12.0000000  12.0000000  12.0000000  12.0000000  12.0000000  12.0000000  12.0000000  12.0000000
 NucSpn=           0           0           0           0           0           0           0           0           0           0
 AtZEff=   0.0000000   0.0000000   0.0000000   0.0000000   0.0000000   0.0000000   0.0000000   0.0000000   0.0000000   0.0000000
 NQMom=    0.0000000   0.0000000   0.0000000   0.0000000   0.0000000   0.0000000   0.0000000   0.0000000   0.0000000   0.0000000
 NMagM=    0.0000000   0.0000000   0.0000000   0.0000000   0.0000000   0.0000000   0.0000000   0.0000000   0.0000000   0.0000000

  Atom        11          12          13          14          15          16          17          18          19          20
 IAtWgt=          12          12          12          12          12          12           1           1           1           1
 AtmWgt=  12.0000000  12.0000000  12.0000000  12.0000000  12.0000000  12.0000000   1.0078250   1.0078250   1.0078250   1.0078250
 NucSpn=           0           0           0           0           0           0           1           1           1           1
 AtZEff=   0.0000000   0.0000000   0.0000000   0.0000000   0.0000000   0.0000000   0.0000000   0.0000000   0.0000000   0.0000000
 NQMom=    0.0000000   0.0000000   0.0000000   0.0000000   0.0000000   0.0000000   0.0000000   0.0000000   0.0000000   0.0000000
 NMagM=    0.0000000   0.0000000   0.0000000   0.0000000   0.0000000   0.0000000   2.7928460   2.7928460   2.7928460   2.7928460

  Atom        21          22          23          24          25          26
 IAtWgt=           1           1           1           1           1           1
 AtmWgt=   1.0078250   1.0078250   1.0078250   1.0078250   1.0078250   1.0078250
 NucSpn=           1           1           1           1           1           1
 AtZEff=   0.0000000   0.0000000   0.0000000   0.0000000   0.0000000   0.0000000
 NQMom=    0.0000000   0.0000000   0.0000000   0.0000000   0.0000000   0.0000000
 NMagM=    2.7928460   2.7928460   2.7928460   2.7928460   2.7928460   2.7928460
 Leave Link  101 at Fri Dec  3 12:27:43 2021, MaxMem=  498073600 cpu:       0.4
 (Enter /apps/software//g09/l202.exe)
                          Input orientation:                          
 ---------------------------------------------------------------------
 Center     Atomic      Atomic             Coordinates (Angstroms)
 Number     Number       Type             X           Y           Z
 ---------------------------------------------------------------------
      1          6           0        0.000127   -3.518966    0.000000
      2          6           0       -1.208869   -2.829282    0.000000
      3          6           0       -1.234523   -1.427212    0.000000
      4          6           0       -0.000003   -0.712453    0.000000
      5          6           0        1.234397   -1.427026    0.000000
      6          6           0        1.208893   -2.829318    0.000000
      7          6           0        2.460928   -0.679538    0.000000
      8          6           0        2.460928    0.679539    0.000000
      9          6           0        1.234398    1.427027    0.000000
     10          6           0       -0.000003    0.712453    0.000000
     11          6           0       -1.234523    1.427211    0.000000
     12          6           0       -2.460958    0.679507    0.000000
     13          6           0       -2.460958   -0.679508    0.000000
     14          6           0       -1.208869    2.829282    0.000000
     15          6           0        0.000126    3.518966    0.000000
     16          6           0        1.208893    2.829319    0.000000
     17          1           0       -3.397792   -1.226925    0.000000
     18          1           0       -3.397791    1.226924    0.000000
     19          1           0       -0.000033   -4.603162    0.000000
     20          1           0       -2.146110   -3.375683    0.000000
     21          1           0        2.146302   -3.375426    0.000000
     22          1           0        3.397679   -1.227069    0.000000
     23          1           0        3.397679    1.227069    0.000000
     24          1           0       -2.146110    3.375681    0.000000
     25          1           0       -0.000032    4.603162    0.000000
     26          1           0        2.146301    3.375428    0.000000
 ---------------------------------------------------------------------
                    Distance matrix (angstroms):
                    1          2          3          4          5
     1  C    0.000000
     2  C    1.391882   0.000000
     3  C    2.428949   1.402305   0.000000
     4  C    2.806513   2.437688   1.426506   0.000000
     5  C    2.428917   2.817068   2.468920   1.426309   0.000000
     6  C    1.391664   2.417762   2.817123   2.437734   1.402524
     7  C    3.757378   4.253094   3.770328   2.461151   1.436355
     8  C    4.866517   5.077326   4.253793   2.827335   2.437621
     9  C    5.097673   4.907720   3.773891   2.470045   2.854053
    10  C    4.231419   3.742358   2.470264   1.424906   2.470043
    11  C    5.097943   4.256570   2.854423   2.470263   3.773889
    12  C    4.866633   3.725497   2.437705   2.827340   4.253602
    13  C    3.757587   2.487821   1.436386   2.461176   3.770203
    14  C    6.462347   5.658564   4.256571   3.742358   4.907719
    15  C    7.037932   6.462346   5.097944   4.231419   5.097672
    16  C    6.462340   6.153482   4.907987   3.742403   4.256421
    17  H    4.098696   2.712735   2.172521   3.436517   4.636509
    18  H    5.836893   4.609142   3.424057   3.912307   5.338597
    19  H    1.084196   2.146610   3.407437   3.890709   3.407588
    20  H    2.151014   1.084885   2.151169   3.420317   3.901934
    21  H    2.150970   3.399330   3.901989   3.420241   2.151240
    22  H    4.098311   4.877230   4.636524   3.436433   2.172504
    23  H    5.836798   6.137937   5.338774   3.912287   3.424034
    24  H    7.220976   6.275348   4.888637   4.617209   5.873144
    25  H    8.122128   7.530107   6.155435   5.315615   6.155240
    26  H    7.220715   7.053764   5.873272   4.617076   4.888265
                    6          7          8          9         10
     6  C    0.000000
     7  C    2.487799   0.000000
     8  C    3.725543   1.359077   0.000000
     9  C    4.256421   2.437620   1.436354   0.000000
    10  C    3.742402   2.827334   2.461151   1.426311   0.000000
    11  C    4.907985   4.253792   3.770328   2.468921   1.426506
    12  C    5.077367   5.106071   4.921886   3.770205   2.461176
    13  C    4.253174   4.921886   5.106072   4.253604   2.827341
    14  C    6.153481   5.077325   4.253094   2.817068   2.437688
    15  C    6.462339   4.866516   3.757378   2.428917   2.806513
    16  C    5.658637   3.725543   2.487799   1.402524   2.437735
    17  H    4.877418   5.884236   6.161104   5.338600   3.912308
    18  H    6.137967   6.161103   5.884235   4.636509   3.436516
    19  H    2.146631   4.631539   5.827801   6.155242   5.315615
    20  H    3.399200   5.337977   6.137559   5.873147   4.617210
    21  H    1.084882   2.714185   4.067153   4.888264   4.617075
    22  H    2.712561   1.085031   2.124301   3.424034   3.912287
    23  H    4.609236   2.124301   1.085031   2.172503   3.436433
    24  H    7.053939   6.137557   5.337975   3.901934   3.420316
    25  H    7.530157   5.827799   4.631538   3.407587   3.890709
    26  H    6.275158   4.067154   2.714186   2.151240   3.420242
                   11         12         13         14         15
    11  C    0.000000
    12  C    1.436386   0.000000
    13  C    2.437705   1.359015   0.000000
    14  C    1.402306   2.487822   3.725498   0.000000
    15  C    2.428950   3.757587   4.866633   1.391881   0.000000
    16  C    2.817124   4.253175   5.077369   2.417762   1.391665
    17  H    3.424058   2.124180   1.085045   4.609143   5.836894
    18  H    2.172520   1.085044   2.124180   2.712735   4.098694
    19  H    6.155434   5.827756   4.631545   7.530107   8.122128
    20  H    4.888638   4.067394   2.714496   6.275349   7.220977
    21  H    5.873270   6.137534   5.338054   7.053763   7.220714
    22  H    5.338773   6.161060   5.884169   6.137937   5.836798
    23  H    4.636524   5.884170   6.161060   4.877230   4.098312
    24  H    2.151169   2.714495   4.067393   1.084884   2.151014
    25  H    3.407438   4.631547   5.827758   2.146611   1.084196
    26  H    3.901989   5.338054   6.137535   3.399330   2.150970
                   16         17         18         19         20
    16  C    0.000000
    17  H    6.137969   0.000000
    18  H    4.877418   2.453849   0.000000
    19  H    7.530158   4.789963   6.747938   0.000000
    20  H    7.053942   2.486739   4.769769   2.472317   0.000000
    21  H    6.275157   5.945842   7.205456   2.472669   4.292412
    22  H    4.609237   6.795471   7.224991   4.789828   5.945598
    23  H    2.712561   7.224992   6.795470   6.748040   7.205479
    24  H    3.399199   4.769768   2.486737   8.262420   6.751364
    25  H    2.146630   6.747939   4.789963   9.206324   8.262422
    26  H    1.084882   7.205458   5.945841   8.262242   8.000143
                   21         22         23         24         25
    21  H    0.000000
    22  H    2.486239   0.000000
    23  H    4.769581   2.454138   0.000000
    24  H    8.000140   7.205477   5.945598   0.000000
    25  H    8.262240   6.748039   4.789827   2.472319   0.000000
    26  H    6.750854   4.769583   2.486241   4.292411   2.472666
                   26
    26  H    0.000000
 Stoichiometry    C16H10
 Framework group  CS[SG(C16H10)]
 Deg. of freedom    49
 Full point group                 CS      NOp   2
 Largest Abelian subgroup         CS      NOp   2
 Largest concise Abelian subgroup C1      NOp   1
                         Standard orientation:                         
 ---------------------------------------------------------------------
 Center     Atomic      Atomic             Coordinates (Angstroms)
 Number     Number       Type             X           Y           Z
 ---------------------------------------------------------------------
      1          6           0        0.000127   -3.518966    0.000000
      2          6           0       -1.208869   -2.829282    0.000000
      3          6           0       -1.234523   -1.427212    0.000000
      4          6           0       -0.000003   -0.712453    0.000000
      5          6           0        1.234397   -1.427026    0.000000
      6          6           0        1.208893   -2.829318    0.000000
      7          6           0        2.460928   -0.679538    0.000000
      8          6           0        2.460928    0.679539    0.000000
      9          6           0        1.234398    1.427027    0.000000
     10          6           0       -0.000003    0.712453    0.000000
     11          6           0       -1.234523    1.427211    0.000000
     12          6           0       -2.460958    0.679507    0.000000
     13          6           0       -2.460958   -0.679508    0.000000
     14          6           0       -1.208869    2.829282    0.000000
     15          6           0        0.000126    3.518966    0.000000
     16          6           0        1.208893    2.829319    0.000000
     17          1           0       -3.397792   -1.226925    0.000000
     18          1           0       -3.397791    1.226924    0.000000
     19          1           0       -0.000033   -4.603162    0.000000
     20          1           0       -2.146110   -3.375683    0.000000
     21          1           0        2.146302   -3.375426    0.000000
     22          1           0        3.397679   -1.227069    0.000000
     23          1           0        3.397679    1.227069    0.000000
     24          1           0       -2.146110    3.375681    0.000000
     25          1           0       -0.000032    4.603162    0.000000
     26          1           0        2.146301    3.375428    0.000000
 ---------------------------------------------------------------------
 Rotational constants (GHZ):      1.0125766      0.5564307      0.3590988
 Leave Link  202 at Fri Dec  3 12:27:43 2021, MaxMem=  498073600 cpu:       0.1
 (Enter /apps/software//g09/l301.exe)
 Standard basis: 6-311++G(d,p) (5D, 7F)
 Ernie: Thresh=  0.10000D-02 Tol=  0.10000D-05 Strict=F.
 There are   316 symmetry adapted basis functions of A'  symmetry.
 There are   106 symmetry adapted basis functions of A"  symmetry.
 Integral buffers will be    131072 words long.
 Raffenetti 1 integral format.
 Two-electron integral symmetry is turned on.
   422 basis functions,   666 primitive gaussians,   438 cartesian basis functions
    53 alpha electrons       53 beta electrons
       nuclear repulsion energy       966.7078936871 Hartrees.
 IExCor=    0 DFT=F Ex=HF Corr=None ExCW=0 ScaHFX=  1.000000
 ScaDFX=  1.000000  1.000000  1.000000  1.000000 ScalE2=  1.000000  1.000000
 IRadAn=      0 IRanWt=     -1 IRanGd=            0 ICorTp=0
 NAtoms=   26 NActive=   26 NUniq=   26 SFac= 7.50D-01 NAtFMM=   80 NAOKFM=F Big=F
 Leave Link  301 at Fri Dec  3 12:27:43 2021, MaxMem=  498073600 cpu:       0.4
 (Enter /apps/software//g09/l302.exe)
 NPDir=0 NMtPBC=     1 NCelOv=     1 NCel=       1 NClECP=     1 NCelD=      1
         NCelK=      1 NCelE2=     1 NClLst=     1 CellRange=     0.0.
 One-electron integrals computed using PRISM.
 NBasis=   422 RedAO= T  NBF=   316   106
 NBsUse=   414 1.00D-06 NBFU=   308   106
 Leave Link  302 at Fri Dec  3 12:27:44 2021, MaxMem=  498073600 cpu:       2.8
 (Enter /apps/software//g09/l303.exe)
 DipDrv:  MaxL=1.
 Leave Link  303 at Fri Dec  3 12:27:44 2021, MaxMem=  498073600 cpu:       0.5
 (Enter /apps/software//g09/l401.exe)
 Harris functional with IExCor=  205 diagonalized for initial guess.
 ExpMin= 3.60D-02 ExpMax= 4.56D+03 ExpMxC= 6.82D+02 IAcc=3 IRadAn=         0 AccDes= 0.00D+00
 HarFok:  IExCor=  205 AccDes= 0.00D+00 IRadAn=         0 IDoV= 1
 ScaDFX=  1.000000  1.000000  1.000000  1.000000
 FoFCou: FMM=F IPFlag=           0 FMFlag=      100000 FMFlg1=           0
         NFxFlg=           0 DoJE=T BraDBF=F KetDBF=T FulRan=T
         Omega=  0.000000  0.000000  1.000000  0.000000  0.000000 ICntrl=     500 IOpCl=  0
         NMat0=    1 NMatS0=    1 NMatT0=    0 NMatD0=    1 NMtDS0=    0 NMtDT0=    0
         I1Cent=           4 NGrid=           0.
 Petite list used in FoFCou.
 Harris En= -612.752806388946    
 Initial guess orbital symmetries:
       Occupied  (A') (A') (A') (A') (A') (A') (A') (A') (A') (A')
                 (A') (A') (A') (A') (A') (A') (A') (A') (A') (A')
                 (A') (A') (A') (A') (A') (A') (A') (A') (A') (A')
                 (A') (A') (A') (A') (A') (A') (A') (A') (A') (A")
                 (A') (A') (A') (A') (A") (A') (A") (A') (A") (A")
                 (A") (A") (A")
       Virtual   (A") (A") (A") (A") (A") (A") (A') (A') (A") (A')
                 (A') (A') (A') (A') (A') (A") (A') (A') (A") (A')
                 (A') (A") (A') (A') (A") (A') (A') (A') (A') (A")
                 (A") (A') (A') (A') (A") (A') (A') (A') (A') (A')
                 (A") (A') (A') (A") (A') (A') (A') (A') (A') (A")
                 (A') (A') (A') (A') (A") (A') (A") (A') (A") (A')
                 (A') (A') (A') (A') (A') (A") (A") (A') (A") (A')
                 (A') (A') (A') (A') (A') (A') (A') (A') (A') (A')
                 (A") (A') (A') (A') (A') (A') (A') (A') (A') (A')
                 (A') (A') (A') (A') (A') (A') (A') (A') (A') (A')
                 (A') (A') (A") (A') (A') (A") (A") (A") (A') (A')
                 (A") (A') (A') (A") (A') (A') (A") (A') (A") (A')
                 (A') (A') (A') (A") (A') (A') (A") (A") (A") (A")
                 (A') (A") (A') (A') (A') (A') (A") (A') (A') (A')
                 (A') (A') (A") (A') (A') (A') (A') (A') (A') (A")
                 (A') (A') (A") (A') (A') (A') (A') (A') (A') (A')
                 (A') (A') (A") (A') (A") (A") (A') (A") (A') (A")
                 (A') (A") (A") (A') (A") (A") (A") (A') (A') (A")
                 (A') (A') (A') (A') (A') (A') (A') (A') (A') (A')
                 (A') (A') (A') (A") (A") (A') (A') (A") (A') (A")
                 (A') (A') (A') (A") (A") (A") (A') (A') (A') (A')
                 (A") (A') (A') (A') (A") (A') (A') (A") (A") (A")
                 (A") (A') (A') (A') (A") (A') (A") (A') (A') (A")
                 (A") (A") (A') (A') (A") (A') (A') (A") (A') (A')
                 (A') (A") (A') (A') (A") (A') (A') (A') (A") (A')
                 (A') (A') (A') (A') (A") (A") (A") (A') (A") (A')
                 (A') (A') (A") (A') (A") (A') (A') (A') (A') (A')
                 (A') (A') (A") (A') (A") (A") (A") (A') (A') (A')
                 (A") (A') (A') (A') (A') (A') (A') (A") (A") (A")
                 (A') (A') (A') (A') (A') (A') (A') (A") (A') (A')
                 (A") (A") (A") (A') (A') (A") (A") (A") (A") (A')
                 (A') (A') (A') (A') (A') (A') (A') (A') (A') (A')
                 (A') (A') (A') (A') (A') (A') (A') (A') (A') (A')
                 (A') (A') (A') (A') (A') (A') (A') (A') (A') (A')
                 (A') (A') (A') (A') (A') (A') (A') (A') (A') (A')
                 (A') (A') (A') (A') (A') (A') (A') (A') (A') (A')
                 (A')
 The electronic state of the initial guess is 1-A'.
 Leave Link  401 at Fri Dec  3 12:27:46 2021, MaxMem=  498073600 cpu:      11.1
 (Enter /apps/software//g09/l502.exe)
 Closed shell SCF:
 Requested convergence on RMS density matrix=1.00D-08 within 128 cycles.
 Requested convergence on MAX density matrix=1.00D-06.
 Requested convergence on             energy=1.00D-06.
 No special actions if energy rises.
 Using DIIS extrapolation, IDIIS=  1040.
 Integral symmetry usage will be decided dynamically.
 IEnd=      599700 IEndB=      599700 NGot=   498073600 MDV=   497682823
 LenX=   497682823 LenY=   497490538
 Fock matrices will be formed incrementally for  20 cycles.

 Cycle   1  Pass 0  IDiag  1:
 FoFCou: FMM=F IPFlag=           0 FMFlag=      100000 FMFlg1=           0
         NFxFlg=           0 DoJE=F BraDBF=F KetDBF=F FulRan=T
         Omega=  0.000000  0.000000  1.000000  0.000000  0.000000 ICntrl=       0 IOpCl=  0
         NMat0=    1 NMatS0=    1 NMatT0=    0 NMatD0=    1 NMtDS0=    0 NMtDT0=    0
         I1Cent=           0 NGrid=           0.
 Petite list used in FoFCou.
 E= -611.249577083176    
 DIIS: error= 7.21D-02 at cycle   1 NSaved=   1.
 NSaved= 1 IEnMin= 1 EnMin= -611.249577083176     IErMin= 1 ErrMin= 7.21D-02
 ErrMax= 7.21D-02 EMaxC= 1.00D-01 BMatC= 1.23D+00 BMatP= 1.23D+00
 IDIUse=3 WtCom= 2.79D-01 WtEn= 7.21D-01
 Coeff-Com:  0.100D+01
 Coeff-En:   0.100D+01
 Coeff:      0.100D+01
 Gap=     0.276 Goal=   None    Shift=    0.000
 GapD=    0.276 DampG=1.000 DampE=0.500 DampFc=0.5000 IDamp=-1.
 Damping current iteration by 5.00D-01
 RMSDP=2.12D-02 MaxDP=9.76D-01              OVMax= 1.60D-01

 Cycle   2  Pass 0  IDiag  1:
 RMSU=  5.83D-03    CP:  1.12D+00
 E= -611.581530416796     Delta-E=       -0.331953333620 Rises=F Damp=T
 DIIS: error= 3.22D-02 at cycle   2 NSaved=   2.
 NSaved= 2 IEnMin= 2 EnMin= -611.581530416796     IErMin= 2 ErrMin= 3.22D-02
 ErrMax= 3.22D-02 EMaxC= 1.00D-01 BMatC= 2.90D-01 BMatP= 1.23D+00
 IDIUse=3 WtCom= 6.78D-01 WtEn= 3.22D-01
 Coeff-Com: -0.825D+00 0.183D+01
 Coeff-En:   0.000D+00 0.100D+01
 Coeff:     -0.559D+00 0.156D+01
 Gap=     0.305 Goal=   None    Shift=    0.000
 RMSDP=8.30D-03 MaxDP=5.85D-01 DE=-3.32D-01 OVMax= 4.20D-02

 Cycle   3  Pass 0  IDiag  1:
 RMSU=  2.80D-03    CP:  9.94D-01  1.27D+00
 E= -611.887098001104     Delta-E=       -0.305567584308 Rises=F Damp=F
 DIIS: error= 2.43D-03 at cycle   3 NSaved=   3.
 NSaved= 3 IEnMin= 3 EnMin= -611.887098001104     IErMin= 3 ErrMin= 2.43D-03
 ErrMax= 2.43D-03 EMaxC= 1.00D-01 BMatC= 1.75D-03 BMatP= 2.90D-01
 IDIUse=3 WtCom= 9.76D-01 WtEn= 2.43D-02
 Coeff-Com: -0.647D-01 0.932D-01 0.972D+00
 Coeff-En:   0.000D+00 0.000D+00 0.100D+01
 Coeff:     -0.631D-01 0.909D-01 0.972D+00
 Gap=     0.297 Goal=   None    Shift=    0.000
 RMSDP=2.36D-03 MaxDP=1.24D-01 DE=-3.06D-01 OVMax= 1.11D-02

 Cycle   4  Pass 0  IDiag  1:
 RMSU=  1.17D-03    CP:  9.64D-01  1.30D+00  9.37D-01
 E= -611.889012381907     Delta-E=       -0.001914380802 Rises=F Damp=F
 DIIS: error= 1.79D-03 at cycle   4 NSaved=   4.
 NSaved= 4 IEnMin= 4 EnMin= -611.889012381907     IErMin= 4 ErrMin= 1.79D-03
 ErrMax= 1.79D-03 EMaxC= 1.00D-01 BMatC= 1.68D-04 BMatP= 1.75D-03
 IDIUse=3 WtCom= 9.82D-01 WtEn= 1.79D-02
 Coeff-Com:  0.603D-03-0.102D-01 0.163D+00 0.846D+00
 Coeff-En:   0.000D+00 0.000D+00 0.000D+00 0.100D+01
 Coeff:      0.592D-03-0.100D-01 0.160D+00 0.849D+00
 Gap=     0.298 Goal=   None    Shift=    0.000
 RMSDP=3.74D-04 MaxDP=2.74D-02 DE=-1.91D-03 OVMax= 7.10D-03

 Cycle   5  Pass 0  IDiag  1:
 RMSU=  1.82D-04    CP:  9.63D-01  1.31D+00  9.98D-01  9.42D-01
 E= -611.889247488647     Delta-E=       -0.000235106741 Rises=F Damp=F
 DIIS: error= 8.22D-04 at cycle   5 NSaved=   5.
 NSaved= 5 IEnMin= 5 EnMin= -611.889247488647     IErMin= 5 ErrMin= 8.22D-04
 ErrMax= 8.22D-04 EMaxC= 1.00D-01 BMatC= 3.37D-05 BMatP= 1.68D-04
 IDIUse=3 WtCom= 9.92D-01 WtEn= 8.22D-03
 Coeff-Com:  0.850D-02-0.146D-01-0.872D-01 0.196D+00 0.898D+00
 Coeff-En:   0.000D+00 0.000D+00 0.000D+00 0.000D+00 0.100D+01
 Coeff:      0.843D-02-0.145D-01-0.865D-01 0.194D+00 0.898D+00
 Gap=     0.298 Goal=   None    Shift=    0.000
 RMSDP=2.47D-04 MaxDP=1.42D-02 DE=-2.35D-04 OVMax= 3.76D-03

 Cycle   6  Pass 0  IDiag  1:
 RMSU=  6.57D-05    CP:  9.61D-01  1.31D+00  9.84D-01  1.06D+00  8.11D-01
 E= -611.889309982105     Delta-E=       -0.000062493457 Rises=F Damp=F
 DIIS: error= 3.66D-04 at cycle   6 NSaved=   6.
 NSaved= 6 IEnMin= 6 EnMin= -611.889309982105     IErMin= 6 ErrMin= 3.66D-04
 ErrMax= 3.66D-04 EMaxC= 1.00D-01 BMatC= 3.13D-06 BMatP= 3.37D-05
 IDIUse=3 WtCom= 9.96D-01 WtEn= 3.66D-03
 Coeff-Com:  0.145D-02-0.170D-02-0.308D-01-0.452D-01 0.150D+00 0.927D+00
 Coeff-En:   0.000D+00 0.000D+00 0.000D+00 0.000D+00 0.000D+00 0.100D+01
 Coeff:      0.144D-02-0.169D-02-0.307D-01-0.451D-01 0.149D+00 0.927D+00
 Gap=     0.299 Goal=   None    Shift=    0.000
 RMSDP=4.82D-05 MaxDP=1.43D-03 DE=-6.25D-05 OVMax= 1.78D-03

 Cycle   7  Pass 0  IDiag  1:
 RMSU=  2.49D-05    CP:  9.61D-01  1.31D+00  9.84D-01  1.07D+00  8.98D-01
                    CP:  1.18D+00
 E= -611.889320283210     Delta-E=       -0.000010301106 Rises=F Damp=F
 DIIS: error= 1.41D-04 at cycle   7 NSaved=   7.
 NSaved= 7 IEnMin= 7 EnMin= -611.889320283210     IErMin= 7 ErrMin= 1.41D-04
 ErrMax= 1.41D-04 EMaxC= 1.00D-01 BMatC= 6.56D-07 BMatP= 3.13D-06
 IDIUse=3 WtCom= 9.99D-01 WtEn= 1.41D-03
 Coeff-Com: -0.869D-03 0.165D-02 0.586D-02-0.338D-01-0.100D+00 0.173D+00
 Coeff-Com:  0.955D+00
 Coeff-En:   0.000D+00 0.000D+00 0.000D+00 0.000D+00 0.000D+00 0.000D+00
 Coeff-En:   0.100D+01
 Coeff:     -0.868D-03 0.165D-02 0.586D-02-0.338D-01-0.100D+00 0.172D+00
 Coeff:      0.955D+00
 Gap=     0.299 Goal=   None    Shift=    0.000
 RMSDP=1.86D-05 MaxDP=7.62D-04 DE=-1.03D-05 OVMax= 8.44D-04

 Cycle   8  Pass 0  IDiag  1:
 RMSU=  7.39D-06    CP:  9.61D-01  1.31D+00  9.83D-01  1.07D+00  9.19D-01
                    CP:  1.24D+00  1.19D+00
 E= -611.889322930236     Delta-E=       -0.000002647026 Rises=F Damp=F
 DIIS: error= 6.45D-05 at cycle   8 NSaved=   8.
 NSaved= 8 IEnMin= 8 EnMin= -611.889322930236     IErMin= 8 ErrMin= 6.45D-05
 ErrMax= 6.45D-05 EMaxC= 1.00D-01 BMatC= 1.17D-07 BMatP= 6.56D-07
 IDIUse=1 WtCom= 1.00D+00 WtEn= 0.00D+00
 Coeff-Com: -0.466D-03 0.647D-03 0.761D-02 0.129D-01-0.387D-01-0.242D+00
 Coeff-Com:  0.455D-02 0.126D+01
 Coeff:     -0.466D-03 0.647D-03 0.761D-02 0.129D-01-0.387D-01-0.242D+00
 Coeff:      0.455D-02 0.126D+01
 Gap=     0.299 Goal=   None    Shift=    0.000
 RMSDP=1.33D-05 MaxDP=4.63D-04 DE=-2.65D-06 OVMax= 6.12D-04

 Cycle   9  Pass 0  IDiag  1:
 RMSU=  1.86D-06    CP:  9.61D-01  1.31D+00  9.82D-01  1.07D+00  9.30D-01
                    CP:  1.27D+00  1.47D+00  1.38D+00
 E= -611.889323554491     Delta-E=       -0.000000624255 Rises=F Damp=F
 DIIS: error= 1.13D-05 at cycle   9 NSaved=   9.
 NSaved= 9 IEnMin= 9 EnMin= -611.889323554491     IErMin= 9 ErrMin= 1.13D-05
 ErrMax= 1.13D-05 EMaxC= 1.00D-01 BMatC= 5.42D-09 BMatP= 1.17D-07
 IDIUse=1 WtCom= 1.00D+00 WtEn= 0.00D+00
 Coeff-Com: -0.469D-04 0.385D-04 0.113D-02 0.503D-02-0.397D-03-0.607D-01
 Coeff-Com: -0.656D-01 0.242D+00 0.879D+00
 Coeff:     -0.469D-04 0.385D-04 0.113D-02 0.503D-02-0.397D-03-0.607D-01
 Coeff:     -0.656D-01 0.242D+00 0.879D+00
 Gap=     0.299 Goal=   None    Shift=    0.000
 RMSDP=2.25D-06 MaxDP=9.50D-05 DE=-6.24D-07 OVMax= 9.39D-05

 Initial convergence to 1.0D-05 achieved.  Increase integral accuracy.
 Cycle  10  Pass 1  IDiag  1:
 E= -611.889323570716     Delta-E=       -0.000000016225 Rises=F Damp=F
 DIIS: error= 2.50D-06 at cycle   1 NSaved=   1.
 NSaved= 1 IEnMin= 1 EnMin= -611.889323570716     IErMin= 1 ErrMin= 2.50D-06
 ErrMax= 2.50D-06 EMaxC= 1.00D-01 BMatC= 5.19D-10 BMatP= 5.19D-10
 IDIUse=1 WtCom= 1.00D+00 WtEn= 0.00D+00
 Coeff-Com:  0.100D+01
 Coeff:      0.100D+01
 Gap=     0.299 Goal=   None    Shift=    0.000
 RMSDP=2.25D-06 MaxDP=9.50D-05 DE=-1.62D-08 OVMax= 1.40D-05

 Cycle  11  Pass 1  IDiag  1:
 RMSU=  4.49D-07    CP:  1.00D+00
 E= -611.889323571812     Delta-E=       -0.000000001096 Rises=F Damp=F
 DIIS: error= 1.80D-06 at cycle   2 NSaved=   2.
 NSaved= 2 IEnMin= 2 EnMin= -611.889323571812     IErMin= 2 ErrMin= 1.80D-06
 ErrMax= 1.80D-06 EMaxC= 1.00D-01 BMatC= 1.07D-10 BMatP= 5.19D-10
 IDIUse=1 WtCom= 1.00D+00 WtEn= 0.00D+00
 Coeff-Com:  0.121D+00 0.879D+00
 Coeff:      0.121D+00 0.879D+00
 Gap=     0.299 Goal=   None    Shift=    0.000
 RMSDP=2.92D-07 MaxDP=1.22D-05 DE=-1.10D-09 OVMax= 8.04D-06

 Cycle  12  Pass 1  IDiag  1:
 RMSU=  1.58D-07    CP:  1.00D+00  1.15D+00
 E= -611.889323572130     Delta-E=       -0.000000000317 Rises=F Damp=F
 DIIS: error= 9.66D-07 at cycle   3 NSaved=   3.
 NSaved= 3 IEnMin= 3 EnMin= -611.889323572130     IErMin= 3 ErrMin= 9.66D-07
 ErrMax= 9.66D-07 EMaxC= 1.00D-01 BMatC= 5.14D-11 BMatP= 1.07D-10
 IDIUse=1 WtCom= 1.00D+00 WtEn= 0.00D+00
 Coeff-Com: -0.362D+00 0.500D-01 0.131D+01
 Coeff:     -0.362D+00 0.500D-01 0.131D+01
 Gap=     0.299 Goal=   None    Shift=    0.000
 RMSDP=2.50D-07 MaxDP=8.62D-06 DE=-3.17D-10 OVMax= 9.32D-06

 Cycle  13  Pass 1  IDiag  1:
 RMSU=  7.71D-08    CP:  1.00D+00  1.43D+00  1.39D+00
 E= -611.889323572337     Delta-E=       -0.000000000207 Rises=F Damp=F
 DIIS: error= 3.82D-07 at cycle   4 NSaved=   4.
 NSaved= 4 IEnMin= 4 EnMin= -611.889323572337     IErMin= 4 ErrMin= 3.82D-07
 ErrMax= 3.82D-07 EMaxC= 1.00D-01 BMatC= 6.35D-12 BMatP= 5.14D-11
 IDIUse=1 WtCom= 1.00D+00 WtEn= 0.00D+00
 Coeff-Com: -0.152D+00-0.568D-01 0.416D+00 0.793D+00
 Coeff:     -0.152D+00-0.568D-01 0.416D+00 0.793D+00
 Gap=     0.299 Goal=   None    Shift=    0.000
 RMSDP=4.52D-08 MaxDP=1.65D-06 DE=-2.07D-10 OVMax= 2.36D-06

 Cycle  14  Pass 1  IDiag  1:
 RMSU=  2.56D-08    CP:  1.00D+00  1.46D+00  1.45D+00  1.05D+00
 E= -611.889323572352     Delta-E=       -0.000000000015 Rises=F Damp=F
 DIIS: error= 1.68D-07 at cycle   5 NSaved=   5.
 NSaved= 5 IEnMin= 5 EnMin= -611.889323572352     IErMin= 5 ErrMin= 1.68D-07
 ErrMax= 1.68D-07 EMaxC= 1.00D-01 BMatC= 8.80D-13 BMatP= 6.35D-12
 IDIUse=1 WtCom= 1.00D+00 WtEn= 0.00D+00
 Coeff-Com:  0.834D-01 0.167D-01-0.342D+00-0.115D+00 0.136D+01
 Coeff:      0.834D-01 0.167D-01-0.342D+00-0.115D+00 0.136D+01
 Gap=     0.299 Goal=   None    Shift=    0.000
 RMSDP=5.87D-08 MaxDP=3.11D-06 DE=-1.50D-11 OVMax= 1.29D-06

 Cycle  15  Pass 1  IDiag  1:
 RMSU=  1.75D-08    CP:  1.00D+00  1.47D+00  1.34D+00  1.26D+00  1.45D+00
 E= -611.889323572368     Delta-E=       -0.000000000016 Rises=F Damp=F
 DIIS: error= 3.19D-08 at cycle   6 NSaved=   6.
 NSaved= 6 IEnMin= 6 EnMin= -611.889323572368     IErMin= 6 ErrMin= 3.19D-08
 ErrMax= 3.19D-08 EMaxC= 1.00D-01 BMatC= 1.01D-13 BMatP= 8.80D-13
 IDIUse=1 WtCom= 1.00D+00 WtEn= 0.00D+00
 Coeff-Com:  0.332D-01 0.145D-01-0.119D+00-0.121D+00 0.373D+00 0.819D+00
 Coeff:      0.332D-01 0.145D-01-0.119D+00-0.121D+00 0.373D+00 0.819D+00
 Gap=     0.299 Goal=   None    Shift=    0.000
 RMSDP=1.02D-08 MaxDP=3.92D-07 DE=-1.64D-11 OVMax= 1.87D-07

 Cycle  16  Pass 1  IDiag  1:
 RMSU=  3.99D-09    CP:  1.00D+00  1.47D+00  1.33D+00  1.25D+00  1.64D+00
                    CP:  1.01D+00
 E= -611.889323572364     Delta-E=        0.000000000004 Rises=F Damp=F
 DIIS: error= 1.63D-08 at cycle   7 NSaved=   7.
 NSaved= 7 IEnMin= 6 EnMin= -611.889323572368     IErMin= 7 ErrMin= 1.63D-08
 ErrMax= 1.63D-08 EMaxC= 1.00D-01 BMatC= 8.48D-15 BMatP= 1.01D-13
 IDIUse=1 WtCom= 1.00D+00 WtEn= 0.00D+00
 Coeff-Com: -0.124D-01-0.208D-02 0.486D-01 0.687D-02-0.174D+00-0.300D-01
 Coeff-Com:  0.116D+01
 Coeff:     -0.124D-01-0.208D-02 0.486D-01 0.687D-02-0.174D+00-0.300D-01
 Coeff:      0.116D+01
 Gap=     0.299 Goal=   None    Shift=    0.000
 RMSDP=5.63D-09 MaxDP=3.91D-07 DE= 4.09D-12 OVMax= 1.12D-07

 SCF Done:  E(RHF) =  -611.889323572     A.U. after   16 cycles
             Convg  =    0.5626D-08             -V/T =  2.0012
 KE= 6.111843063968D+02 PE=-3.357481650696D+03 EE= 1.167700127040D+03
 Leave Link  502 at Fri Dec  3 12:34:52 2021, MaxMem=  498073600 cpu:    2558.7
 (Enter /apps/software//g09/l801.exe)
 ExpMin= 3.60D-02 ExpMax= 4.56D+03 ExpMxC= 6.82D+02 IAcc=3 IRadAn=         5 AccDes= 0.00D+00
 HarFok:  IExCor=  205 AccDes= 0.00D+00 IRadAn=         5 IDoV=-2
 ScaDFX=  1.000000  1.000000  1.000000  1.000000
 Largest valence mixing into a core orbital is  1.50D-04
 Largest core mixing into a valence orbital is  4.76D-05
 Range of M.O.s used for correlation:    17   414
 NBasis=   422 NAE=    53 NBE=    53 NFC=    16 NFV=     0
 NROrb=    398 NOA=    37 NOB=    37 NVA=   361 NVB=   361

 **** Warning!!: The largest alpha MO coefficient is  0.17366585D+03

 Leave Link  801 at Fri Dec  3 12:34:53 2021, MaxMem=  498073600 cpu:       2.4
 (Enter /apps/software//g09/l906.exe)
 Frozen-core derivative calculation, NFC=  16 NFV=   0.
 FulOut=F Deriv=T AODrv=F NAtomX=    26
   MMem=          12  MDisk=          37 MDiskD=          37
  W3Min=     9610596 MinDsk=    11871839 NBas6D=         438
 NBas2D=       96795    NTT=       96141    LW2=     2040000
    MDV=   496055740 MDiskM=       15666 NBas2p=       86609
 Disk-based method using ON**2 memory for 37 occupieds at a time.
 Estimated scratch disk usage=  5248076894 words.
 IMap=   1   2   3   4   5   6   7   8   9  10  11  12  13  14  15  16  17  18  19  20
 IMap=  21  22  23  24  25  26  27  28  29  30  31  32  33  34  35  36  37  38  39  40
 IMap=  41  42  43  44  45  46  47  48  49  50  51  52  53
 Actual    scratch disk usage=  4884952158 words.
 JobTyp=1 Pass  1:  I=  17 to  53 NPSUse=  6 ParTrn=T ParDer=T DoDerP=T.
 Spin components of T(2) and E(2):
     alpha-alpha T2 =       0.1200913963D+00 E2=     -0.2992813167D+00
     alpha-beta  T2 =       0.5848549292D+00 E2=     -0.1579671148D+01
     beta-beta   T2 =       0.1200913963D+00 E2=     -0.2992813167D+00
 The integrals were generated   1 times.
 ANorm=    0.1350939570D+01
 E2 =    -0.2178233781D+01 EUMP2 =    -0.61406755735367D+03
 Leave Link  906 at Fri Dec  3 12:45:43 2021, MaxMem=  498073600 cpu:    3881.7
 (Enter /apps/software//g09/l1002.exe)
 Minotr:  Closed shell wavefunction.
          Computing MP2/KS-MP2 derivatives.
          Using Z-Vector for PSCF gradient.
          Skipping F1 and S1 gradient terms here.
          Frozen-core window.
          Direct CPHF calculation.
          Differentiating once with respect to electric field.
                with respect to dipole field.
          Electric field/nuclear overlap derivatives assumed to be zero.
          Using symmetry in CPHF.
          Requested convergence is 1.0D-10 RMS, and 1.0D-09 maximum.
          NewPWx=F KeepS1=T KeepF1=T KeepIn=T MapXYZ=F SortEE=F KeepMc=T.
          MDV=     498073388 using IRadAn=       0.
          Solving linear equations separately, MaxMat=       0.
          There are     1 degrees of freedom in the 1st order CPHF.  IDoFFX=0.
 Petite list used in FoFDir.
 MinBra= 0 MaxBra= 2 Meth= 1.
 IRaf=       0 NMat=   1 IRICut=       1 DoRegI=T DoRafI=F ISym2E= 1 JSym2E=1.
 LinEq1:  Iter=  0 NonCon=     1 RMS=2.52D-03 Max=7.67D-02
 AX will form     1 AO Fock derivatives at one time.
 LinEq1:  Iter=  1 NonCon=     1 RMS=5.47D-04 Max=1.55D-02
 LinEq1:  Iter=  2 NonCon=     1 RMS=2.18D-04 Max=1.37D-02
 LinEq1:  Iter=  3 NonCon=     1 RMS=1.01D-04 Max=5.92D-03
 LinEq1:  Iter=  4 NonCon=     1 RMS=3.84D-05 Max=1.56D-03
 LinEq1:  Iter=  5 NonCon=     1 RMS=1.01D-05 Max=3.44D-04
 LinEq1:  Iter=  6 NonCon=     1 RMS=3.55D-06 Max=1.26D-04
 LinEq1:  Iter=  7 NonCon=     1 RMS=1.07D-06 Max=2.72D-05
 LinEq1:  Iter=  8 NonCon=     1 RMS=4.00D-07 Max=1.91D-05
 LinEq1:  Iter=  9 NonCon=     1 RMS=1.28D-07 Max=3.89D-06
 LinEq1:  Iter= 10 NonCon=     1 RMS=3.68D-08 Max=9.37D-07
 LinEq1:  Iter= 11 NonCon=     1 RMS=1.08D-08 Max=2.74D-07
 LinEq1:  Iter= 12 NonCon=     1 RMS=3.15D-09 Max=1.47D-07
 LinEq1:  Iter= 13 NonCon=     1 RMS=1.09D-09 Max=8.34D-08
 LinEq1:  Iter= 14 NonCon=     1 RMS=4.09D-10 Max=3.51D-08
 LinEq1:  Iter= 15 NonCon=     1 RMS=2.19D-10 Max=1.44D-08
 LinEq1:  Iter= 16 NonCon=     1 RMS=4.56D-11 Max=1.22D-09
 LinEq1:  Iter= 17 NonCon=     0 RMS=8.51D-12 Max=2.50D-10
 Linear equations converged to 1.000D-10 1.000D-09 after    17 iterations.
 End of Minotr Frequency-dependent properties file   721 does not exist.
 End of Minotr Frequency-dependent properties file   722 does not exist.
 Leave Link 1002 at Fri Dec  3 12:54:32 2021, MaxMem=  498073600 cpu:    3176.1
 (Enter /apps/software//g09/l601.exe)
 Copying SCF densities to generalized density rwf, IOpCl= 0 IROHF=0.

 **********************************************************************

            Population analysis using the MP2 density.

 **********************************************************************

 Orbital symmetries:
       Occupied  (A') (A') (A') (A') (A') (A') (A') (A') (A') (A')
                 (A') (A') (A') (A') (A') (A') (A') (A') (A') (A')
                 (A') (A') (A') (A') (A') (A') (A') (A') (A') (A')
                 (A') (A') (A') (A') (A') (A') (A') (A') (A') (A')
                 (A") (A') (A') (A') (A") (A') (A") (A') (A") (A")
                 (A") (A") (A")
       Virtual   (A') (A') (A') (A") (A') (A') (A') (A') (A") (A')
                 (A') (A") (A") (A") (A') (A') (A") (A") (A') (A")
                 (A') (A') (A') (A") (A") (A") (A') (A') (A') (A')
                 (A') (A') (A') (A') (A") (A') (A") (A') (A') (A')
                 (A") (A') (A") (A") (A') (A") (A') (A') (A') (A')
                 (A") (A") (A') (A") (A') (A") (A') (A') (A') (A')
                 (A') (A') (A") (A') (A') (A") (A') (A') (A') (A')
                 (A') (A') (A') (A') (A') (A') (A') (A') (A') (A')
                 (A') (A') (A") (A') (A') (A') (A') (A') (A') (A')
                 (A') (A') (A') (A') (A') (A') (A') (A') (A') (A')
                 (A") (A') (A') (A') (A') (A") (A") (A") (A") (A')
                 (A') (A') (A') (A") (A") (A') (A') (A") (A') (A')
                 (A') (A") (A') (A") (A') (A') (A') (A") (A") (A")
                 (A") (A") (A') (A') (A') (A') (A') (A') (A') (A')
                 (A') (A') (A") (A') (A') (A') (A') (A') (A') (A')
                 (A') (A') (A') (A') (A') (A') (A') (A") (A') (A')
                 (A') (A") (A') (A') (A') (A') (A") (A") (A") (A')
                 (A") (A") (A') (A") (A") (A') (A') (A") (A") (A')
                 (A') (A") (A") (A') (A') (A') (A') (A') (A') (A')
                 (A') (A") (A') (A') (A") (A') (A') (A") (A') (A")
                 (A') (A") (A') (A") (A") (A') (A') (A') (A') (A")
                 (A') (A') (A') (A') (A") (A") (A') (A') (A") (A")
                 (A") (A') (A') (A') (A") (A') (A') (A") (A") (A')
                 (A') (A') (A") (A') (A") (A') (A') (A') (A") (A")
                 (A') (A') (A") (A') (A') (A') (A') (A") (A") (A')
                 (A') (A') (A') (A") (A") (A') (A") (A') (A") (A')
                 (A') (A') (A") (A') (A") (A') (A') (A') (A') (A')
                 (A') (A') (A') (A') (A') (A') (A") (A') (A') (A')
                 (A') (A') (A') (A") (A') (A') (A") (A') (A') (A")
                 (A') (A') (A') (A") (A') (A') (A") (A") (A") (A')
                 (A") (A") (A") (A') (A") (A") (A") (A") (A") (A')
                 (A') (A') (A') (A') (A') (A') (A') (A') (A') (A')
                 (A') (A') (A') (A') (A') (A') (A') (A') (A') (A')
                 (A') (A') (A') (A') (A') (A') (A') (A') (A') (A')
                 (A') (A') (A') (A') (A') (A') (A') (A') (A') (A')
                 (A') (A') (A') (A') (A') (A') (A') (A') (A') (A')
                 (A')
 The electronic state is 1-A'.
 Alpha  occ. eigenvalues --  -11.25141 -11.25129 -11.25107 -11.25106 -11.24963
 Alpha  occ. eigenvalues --  -11.24873 -11.24405 -11.24405 -11.24257 -11.24257
 Alpha  occ. eigenvalues --  -11.24228 -11.24228 -11.24122 -11.24122 -11.24051
 Alpha  occ. eigenvalues --  -11.24051  -1.20322  -1.15043  -1.12542  -1.08204
 Alpha  occ. eigenvalues --   -1.04456  -1.02206  -0.99865  -0.97248  -0.86302
 Alpha  occ. eigenvalues --   -0.86064  -0.85093  -0.83210  -0.75496  -0.71672
 Alpha  occ. eigenvalues --   -0.71580  -0.69294  -0.68131  -0.65139  -0.61747
 Alpha  occ. eigenvalues --   -0.60795  -0.60652  -0.58661  -0.56769  -0.56365
 Alpha  occ. eigenvalues --   -0.56158  -0.55354  -0.52487  -0.52327  -0.49628
 Alpha  occ. eigenvalues --   -0.48012  -0.46732  -0.46658  -0.40621  -0.36603
 Alpha  occ. eigenvalues --   -0.34779  -0.30017  -0.26178
 Alpha virt. eigenvalues --    0.03714   0.04322   0.04377   0.05283   0.05435
 Alpha virt. eigenvalues --    0.05521   0.07112   0.07248   0.08387   0.09208
 Alpha virt. eigenvalues --    0.09779   0.10106   0.10442   0.11018   0.11795
 Alpha virt. eigenvalues --    0.12141   0.13464   0.13532   0.15660   0.16214
 Alpha virt. eigenvalues --    0.16235   0.16389   0.16668   0.16761   0.17322
 Alpha virt. eigenvalues --    0.17692   0.17704   0.17844   0.17970   0.18085
 Alpha virt. eigenvalues --    0.18878   0.19070   0.19516   0.19563   0.20579
 Alpha virt. eigenvalues --    0.20601   0.20614   0.20705   0.22207   0.22766
 Alpha virt. eigenvalues --    0.22958   0.23327   0.23612   0.23670   0.23971
 Alpha virt. eigenvalues --    0.25236   0.25330   0.26018   0.26363   0.27219
 Alpha virt. eigenvalues --    0.28730   0.29156   0.30560   0.30790   0.31359
 Alpha virt. eigenvalues --    0.31519   0.31993   0.32032   0.32190   0.32680
 Alpha virt. eigenvalues --    0.33114   0.33969   0.35017   0.36114   0.36274
 Alpha virt. eigenvalues --    0.36502   0.37260   0.37481   0.37571   0.38179
 Alpha virt. eigenvalues --    0.38512   0.39112   0.39702   0.40308   0.40376
 Alpha virt. eigenvalues --    0.41859   0.42464   0.42497   0.42631   0.43241
 Alpha virt. eigenvalues --    0.43521   0.44488   0.46706   0.46764   0.47783
 Alpha virt. eigenvalues --    0.48134   0.48150   0.49182   0.49586   0.50692
 Alpha virt. eigenvalues --    0.51736   0.53842   0.55247   0.56200   0.59658
 Alpha virt. eigenvalues --    0.63335   0.64951   0.67592   0.68248   0.70038
 Alpha virt. eigenvalues --    0.70723   0.70794   0.72614   0.72858   0.72929
 Alpha virt. eigenvalues --    0.72948   0.73176   0.74431   0.77472   0.77687
 Alpha virt. eigenvalues --    0.78336   0.78418   0.78889   0.79299   0.79496
 Alpha virt. eigenvalues --    0.79624   0.79783   0.80014   0.81400   0.81631
 Alpha virt. eigenvalues --    0.83720   0.84136   0.84263   0.84443   0.85062
 Alpha virt. eigenvalues --    0.85779   0.86230   0.86516   0.86681   0.90883
 Alpha virt. eigenvalues --    0.92703   0.94351   0.94889   0.95629   0.96245
 Alpha virt. eigenvalues --    0.97106   0.98014   0.98321   0.99519   0.99641
 Alpha virt. eigenvalues --    0.99823   1.00754   1.01740   1.03270   1.03860
 Alpha virt. eigenvalues --    1.04767   1.05510   1.06622   1.10447   1.10512
 Alpha virt. eigenvalues --    1.11209   1.11671   1.14215   1.14424   1.15025
 Alpha virt. eigenvalues --    1.15108   1.15169   1.15211   1.16763   1.17960
 Alpha virt. eigenvalues --    1.17969   1.18329   1.18811   1.20232   1.22073
 Alpha virt. eigenvalues --    1.22368   1.24237   1.25686   1.26386   1.26902
 Alpha virt. eigenvalues --    1.27425   1.30159   1.31088   1.32713   1.33100
 Alpha virt. eigenvalues --    1.33173   1.34206   1.36489   1.37128   1.37252
 Alpha virt. eigenvalues --    1.39787   1.40975   1.41994   1.43337   1.45454
 Alpha virt. eigenvalues --    1.50414   1.57413   1.61150   1.62785   1.63268
 Alpha virt. eigenvalues --    1.67816   1.72548   1.73588   1.73800   1.74865
 Alpha virt. eigenvalues --    1.75022   1.75684   1.76663   1.76688   1.77089
 Alpha virt. eigenvalues --    1.78041   1.81400   1.82468   1.83654   1.84139
 Alpha virt. eigenvalues --    1.85050   1.88524   1.89087   1.89924   1.90444
 Alpha virt. eigenvalues --    1.90759   1.95047   1.97935   1.98208   1.99668
 Alpha virt. eigenvalues --    2.00625   2.00975   2.01050   2.02415   2.03057
 Alpha virt. eigenvalues --    2.03707   2.06791   2.07642   2.08563   2.13006
 Alpha virt. eigenvalues --    2.16041   2.18170   2.18526   2.18797   2.18833
 Alpha virt. eigenvalues --    2.19281   2.19840   2.21256   2.21991   2.22341
 Alpha virt. eigenvalues --    2.23155   2.23640   2.25794   2.25858   2.27440
 Alpha virt. eigenvalues --    2.27971   2.33416   2.34575   2.35880   2.36221
 Alpha virt. eigenvalues --    2.36300   2.36356   2.37558   2.42633   2.46535
 Alpha virt. eigenvalues --    2.47510   2.47585   2.51266   2.52501   2.54813
 Alpha virt. eigenvalues --    2.56237   2.56492   2.57300   2.62313   2.64993
 Alpha virt. eigenvalues --    2.65025   2.69498   2.78275   2.79181   2.79752
 Alpha virt. eigenvalues --    2.83720   2.85438   2.85715   2.87743   2.88058
 Alpha virt. eigenvalues --    2.90470   2.92791   2.94267   3.01584   3.01670
 Alpha virt. eigenvalues --    3.03101   3.03414   3.03741   3.04697   3.05286
 Alpha virt. eigenvalues --    3.06378   3.06852   3.07349   3.07505   3.08310
 Alpha virt. eigenvalues --    3.09171   3.09517   3.09853   3.11447   3.12264
 Alpha virt. eigenvalues --    3.12986   3.16291   3.17238   3.19982   3.23389
 Alpha virt. eigenvalues --    3.23421   3.23878   3.23897   3.24101   3.28273
 Alpha virt. eigenvalues --    3.30444   3.32058   3.32767   3.32872   3.33356
 Alpha virt. eigenvalues --    3.45530   3.45886   3.49208   3.54504   3.63191
 Alpha virt. eigenvalues --    3.63593   3.66982   3.69944   3.71158   3.78472
 Alpha virt. eigenvalues --    3.79673   3.81875   3.82123   3.85082   3.85390
 Alpha virt. eigenvalues --    3.87842   3.88107   3.91973   3.97691   3.97729
 Alpha virt. eigenvalues --    3.99141   4.03566   4.06683   4.07223   4.15870
 Alpha virt. eigenvalues --    4.22604   4.33321   4.47058   4.47618   4.50445
 Alpha virt. eigenvalues --    4.52139   4.52505   4.56854   4.70565   4.75787
 Alpha virt. eigenvalues --    4.91262   5.25818   5.26921   5.27987   5.29515
 Alpha virt. eigenvalues --   24.61452  24.90464  24.95584  25.03457  25.10259
 Alpha virt. eigenvalues --   25.12108  25.12824  25.15983  25.17546  25.21023
 Alpha virt. eigenvalues --   25.22709  25.24251  25.33869  25.34051  25.36577
 Alpha virt. eigenvalues --   25.37799
          Condensed to atoms (all electrons):
              1          2          3          4          5          6
     1  C   12.987319  -3.023964  -0.363536   4.287203  -0.362994  -3.029489
     2  C   -3.023964  25.411928  -9.358426  -7.658140   4.255429  -1.467792
     3  C   -0.363536  -9.358426  21.643499   1.033394  -3.850725   4.253344
     4  C    4.287203  -7.658140   1.033394  19.500601   1.024399  -7.649808
     5  C   -0.362994   4.255429  -3.850725   1.024399  21.647164  -9.358048
     6  C   -3.029489  -1.467792   4.253344  -7.649808  -9.358048  25.418633
     7  C   -0.899600   0.679356  -2.427493  -1.007338  -0.754875  -0.438046
     8  C   -0.281011   0.247697  -1.898390  -0.669833  -2.256026  -1.487791
     9  C   -0.740375   1.790490  -0.963864  -1.287227   2.031023  -1.112200
    10  C    0.582715  -2.654850  -1.284089   6.352493  -1.287223  -2.655365
    11  C   -0.740291  -1.108926   2.027678  -1.284087  -0.963864   1.789779
    12  C   -0.280716  -1.490609  -2.258280  -0.667308  -1.899122   0.248396
    13  C   -0.897805  -0.436653  -0.757195  -1.005824  -2.427487   0.677853
    14  C   -0.486652  -0.096956  -1.108911  -2.654863   1.790477   1.219340
    15  C    0.148400  -0.486653  -0.740291   0.582720  -0.740373  -0.486242
    16  C   -0.486241   1.219340   1.789770  -2.655369  -1.112185  -0.100666
    17  H    0.063866  -0.092662   0.026865   0.076359  -0.022322   0.006329
    18  H    0.006278  -0.048592  -0.100662   0.021160  -0.041900  -0.009797
    19  H    0.483480  -0.093775  -0.025581   0.034295  -0.025617  -0.093859
    20  H   -0.257073   0.571405  -0.095562  -0.059662   0.067196  -0.042170
    21  H   -0.257126  -0.042308   0.067212  -0.059608  -0.095750   0.571761
    22  H    0.063891   0.006370  -0.022353   0.076365   0.026862  -0.092938
    23  H    0.006293  -0.009823  -0.041915   0.021085  -0.100628  -0.048414
    24  H   -0.005405   0.011016   0.026800   0.023154   0.018113   0.004445
    25  H    0.000572  -0.002683  -0.004373  -0.006008  -0.004372  -0.002680
    26  H   -0.005409   0.004462   0.018130   0.023186   0.026728   0.010953
              7          8          9         10         11         12
     1  C   -0.899600  -0.281011  -0.740375   0.582715  -0.740291  -0.280716
     2  C    0.679356   0.247697   1.790490  -2.654850  -1.108926  -1.490609
     3  C   -2.427493  -1.898390  -0.963864  -1.284089   2.027678  -2.258280
     4  C   -1.007338  -0.669833  -1.287227   6.352493  -1.284087  -0.667308
     5  C   -0.754875  -2.256026   2.031023  -1.287223  -0.963864  -1.899122
     6  C   -0.438046  -1.487791  -1.112200  -2.655365   1.789779   0.248396
     7  C   13.936906   4.214038  -2.256042  -0.669839  -1.898390  -0.485608
     8  C    4.214038  13.936899  -0.754878  -1.007353  -2.427492  -0.632147
     9  C   -2.256042  -0.754878  21.647165   1.024394  -3.850704  -2.427489
    10  C   -0.669839  -1.007353   1.024394  19.500638   1.033398  -1.005822
    11  C   -1.898390  -2.427492  -3.850704   1.033398  21.643455  -0.757200
    12  C   -0.485608  -0.632147  -2.427489  -1.005822  -0.757200  13.939212
    13  C   -0.632147  -0.485609  -1.899124  -0.667308  -2.258283   4.213538
    14  C    0.247698   0.679361   4.255415  -7.658171  -9.358367  -0.436647
    15  C   -0.281012  -0.899602  -0.362988   4.287220  -0.363540  -0.897810
    16  C   -1.487795  -0.438053  -9.358025  -7.649825   4.253321   0.677856
    17  H    0.002332   0.001421  -0.041900   0.021160  -0.100662  -0.075513
    18  H    0.001421   0.002332  -0.022322   0.076359   0.026865   0.448204
    19  H    0.007488   0.003052  -0.004372  -0.006008  -0.004373   0.003069
    20  H   -0.009892  -0.002286   0.018113   0.023154   0.026799   0.008254
    21  H    0.015965   0.008270   0.026728   0.023186   0.018130  -0.002289
    22  H    0.448199  -0.075385  -0.100627   0.021085  -0.041915   0.001415
    23  H   -0.075385   0.448199   0.026862   0.076366  -0.022353   0.002332
    24  H   -0.002286  -0.009892   0.067196  -0.059663  -0.095561   0.015884
    25  H    0.003053   0.007489  -0.025617   0.034295  -0.025581   0.007547
    26  H    0.008270   0.015964  -0.095749  -0.059609   0.067212  -0.009925
             13         14         15         16         17         18
     1  C   -0.897805  -0.486652   0.148400  -0.486241   0.063866   0.006278
     2  C   -0.436653  -0.096956  -0.486653   1.219340  -0.092662  -0.048592
     3  C   -0.757195  -1.108911  -0.740291   1.789770   0.026865  -0.100662
     4  C   -1.005824  -2.654863   0.582720  -2.655369   0.076359   0.021160
     5  C   -2.427487   1.790477  -0.740373  -1.112185  -0.022322  -0.041900
     6  C    0.677853   1.219340  -0.486242  -0.100666   0.006329  -0.009797
     7  C   -0.632147   0.247698  -0.281012  -1.487795   0.002332   0.001421
     8  C   -0.485609   0.679361  -0.899602  -0.438053   0.001421   0.002332
     9  C   -1.899124   4.255415  -0.362988  -9.358025  -0.041900  -0.022322
    10  C   -0.667308  -7.658171   4.287220  -7.649825   0.021160   0.076359
    11  C   -2.258283  -9.358367  -0.363540   4.253321  -0.100662   0.026865
    12  C    4.213538  -0.436647  -0.897810   0.677856  -0.075513   0.448204
    13  C   13.939213  -1.490605  -0.280716   0.248398   0.448204  -0.075513
    14  C   -1.490605  25.411905  -3.023989  -1.467766  -0.048592  -0.092662
    15  C   -0.280716  -3.023989  12.987331  -3.029492   0.006278   0.063866
    16  C    0.248398  -1.467766  -3.029492  25.418630  -0.009797   0.006329
    17  H    0.448204  -0.048592   0.006278  -0.009797   0.601549  -0.020604
    18  H   -0.075513  -0.092662   0.063866   0.006329  -0.020604   0.601549
    19  H    0.007547  -0.002683   0.000572  -0.002680   0.002009  -0.000226
    20  H    0.015884   0.011016  -0.005405   0.004445  -0.002740   0.000721
    21  H   -0.009925   0.004462  -0.005409   0.010953   0.000244  -0.000079
    22  H    0.002332  -0.009823   0.006293  -0.048414  -0.000048   0.000087
    23  H    0.001415   0.006370   0.063890  -0.092940   0.000087  -0.000048
    24  H    0.008254   0.571405  -0.257074  -0.042170   0.000721  -0.002740
    25  H    0.003069  -0.093777   0.483480  -0.093858  -0.000226   0.002009
    26  H   -0.002289  -0.042307  -0.257126   0.571760  -0.000079   0.000244
             19         20         21         22         23         24
     1  C    0.483480  -0.257073  -0.257126   0.063891   0.006293  -0.005405
     2  C   -0.093775   0.571405  -0.042308   0.006370  -0.009823   0.011016
     3  C   -0.025581  -0.095562   0.067212  -0.022353  -0.041915   0.026800
     4  C    0.034295  -0.059662  -0.059608   0.076365   0.021085   0.023154
     5  C   -0.025617   0.067196  -0.095750   0.026862  -0.100628   0.018113
     6  C   -0.093859  -0.042170   0.571761  -0.092938  -0.048414   0.004445
     7  C    0.007488  -0.009892   0.015965   0.448199  -0.075385  -0.002286
     8  C    0.003052  -0.002286   0.008270  -0.075385   0.448199  -0.009892
     9  C   -0.004372   0.018113   0.026728  -0.100627   0.026862   0.067196
    10  C   -0.006008   0.023154   0.023186   0.021085   0.076366  -0.059663
    11  C   -0.004373   0.026799   0.018130  -0.041915  -0.022353  -0.095561
    12  C    0.003069   0.008254  -0.002289   0.001415   0.002332   0.015884
    13  C    0.007547   0.015884  -0.009925   0.002332   0.001415   0.008254
    14  C   -0.002683   0.011016   0.004462  -0.009823   0.006370   0.571405
    15  C    0.000572  -0.005405  -0.005409   0.006293   0.063890  -0.257074
    16  C   -0.002680   0.004445   0.010953  -0.048414  -0.092940  -0.042170
    17  H    0.002009  -0.002740   0.000244  -0.000048   0.000087   0.000721
    18  H   -0.000226   0.000721  -0.000079   0.000087  -0.000048  -0.002740
    19  H    0.575036  -0.024641  -0.024635   0.002010  -0.000226  -0.000023
    20  H   -0.024641   0.599969   0.003822   0.000244  -0.000079   0.000647
    21  H   -0.024635   0.003822   0.599969  -0.002750   0.000724   0.000153
    22  H    0.002010   0.000244  -0.002750   0.601550  -0.020595  -0.000079
    23  H   -0.000226  -0.000079   0.000724  -0.020595   0.601551   0.000244
    24  H   -0.000023   0.000647   0.000153  -0.000079   0.000244   0.599969
    25  H   -0.000007  -0.000023  -0.000023  -0.000226   0.002010  -0.024641
    26  H   -0.000023   0.000153   0.000647   0.000724  -0.002750   0.003822
             25         26
     1  C    0.000572  -0.005409
     2  C   -0.002683   0.004462
     3  C   -0.004373   0.018130
     4  C   -0.006008   0.023186
     5  C   -0.004372   0.026728
     6  C   -0.002680   0.010953
     7  C    0.003053   0.008270
     8  C    0.007489   0.015964
     9  C   -0.025617  -0.095749
    10  C    0.034295  -0.059609
    11  C   -0.025581   0.067212
    12  C    0.007547  -0.009925
    13  C    0.003069  -0.002289
    14  C   -0.093777  -0.042307
    15  C    0.483480  -0.257126
    16  C   -0.093858   0.571760
    17  H   -0.000226  -0.000079
    18  H    0.002009   0.000244
    19  H   -0.000007  -0.000023
    20  H   -0.000023   0.000153
    21  H   -0.000023   0.000647
    22  H   -0.000226   0.000724
    23  H    0.002010  -0.002750
    24  H   -0.024641   0.003822
    25  H    0.575036  -0.024635
    26  H   -0.024635   0.599969
 Mulliken atomic charges:
              1
     1  C   -0.512330
     2  C   -0.124681
     3  C    0.414953
     4  C   -0.391340
     5  C    0.416118
     6  C   -0.125529
     7  C   -0.238975
     8  C   -0.238975
     9  C    0.416118
    10  C   -0.391340
    11  C    0.414951
    12  C   -0.239222
    13  C   -0.239223
    14  C   -0.124679
    15  C   -0.512329
    16  C   -0.125528
    17  H    0.157721
    18  H    0.157721
    19  H    0.190170
    20  H    0.147709
    21  H    0.147677
    22  H    0.157729
    23  H    0.157729
    24  H    0.147709
    25  H    0.190170
    26  H    0.147677
 Sum of Mulliken atomic charges =   0.00000
 Mulliken charges with hydrogens summed into heavy atoms:
              1
     1  C   -0.322160
     2  C    0.023028
     3  C    0.414953
     4  C   -0.391340
     5  C    0.416118
     6  C    0.022148
     7  C   -0.081246
     8  C   -0.081246
     9  C    0.416118
    10  C   -0.391340
    11  C    0.414951
    12  C   -0.081501
    13  C   -0.081501
    14  C    0.023029
    15  C   -0.322158
    16  C    0.022149
 Sum of Mulliken charges with hydrogens summed into heavy atoms =   0.00000
 Electronic spatial extent (au):  <R**2>=           2991.3935
 Charge=              0.0000 electrons
 Dipole moment (field-independent basis, Debye):
    X=              0.0002    Y=              0.0000    Z=              0.0000  Tot=              0.0002
 Quadrupole moment (field-independent basis, Debye-Ang):
   XX=            -82.3174   YY=            -81.9433   ZZ=           -101.4945
   XY=              0.0000   XZ=              0.0000   YZ=              0.0000
 Traceless Quadrupole moment (field-independent basis, Debye-Ang):
   XX=              6.2677   YY=              6.6417   ZZ=            -12.9094
   XY=              0.0000   XZ=              0.0000   YZ=              0.0000
 Octapole moment (field-independent basis, Debye-Ang**2):
  XXX=              0.0058  YYY=              0.0000  ZZZ=              0.0000  XYY=             -0.0055
  XXY=              0.0000  XXZ=              0.0000  XZZ=              0.0000  YZZ=              0.0000
  YYZ=              0.0000  XYZ=              0.0000
 Hexadecapole moment (field-independent basis, Debye-Ang**3):
 XXXX=          -1399.0728 YYYY=          -2412.9555 ZZZZ=           -124.2306 XXXY=             -0.0002
 XXXZ=              0.0000 YYYX=              0.0002 YYYZ=              0.0000 ZZZX=              0.0000
 ZZZY=              0.0000 XXYY=           -628.1417 XXZZ=           -309.2130 YYZZ=           -521.2876
 XXYZ=              0.0000 YYXZ=              0.0000 ZZXY=             -0.0001
 N-N= 9.667078936871D+02 E-N=-3.359690344365D+03  KE= 6.138497895815D+02
 Symmetry A'   KE= 5.965774512542D+02
 Symmetry A"   KE= 1.727233832724D+01
 No NMR shielding tensors so no spin-rotation constants.
 Leave Link  601 at Fri Dec  3 12:54:33 2021, MaxMem=  498073600 cpu:       5.2
 (Enter /apps/software//g09/l9999.exe)
 1\1\GINC-DLT17\SP\RMP2-FC\6-311++G(d,p)\C16H10\ITAMAR\03-Dec-2021\0\\#
 P MP2/6-311++G** Density=MP2\\Pyrene\\0,1\C,0,0.000127,-3.518966,0.\C,
 0,-1.208869,-2.829282,0.\C,0,-1.234523,-1.427212,0.\C,0,-0.000003,-0.7
 12453,0.\C,0,1.234397,-1.427026,0.\C,0,1.208893,-2.829318,0.\C,0,2.460
 928,-0.679538,0.\C,0,2.460928,0.679539,0.\C,0,1.234398,1.427027,0.\C,0
 ,-0.000003,0.712453,0.\C,0,-1.234523,1.427211,0.\C,0,-2.460958,0.67950
 7,0.\C,0,-2.460958,-0.679508,0.\C,0,-1.208869,2.829282,0.\C,0,0.000126
 ,3.518966,0.\C,0,1.208893,2.829319,0.\H,0,-3.397792,-1.226925,0.\H,0,-
 3.397791,1.226924,0.\H,0,-0.000033,-4.603162,0.\H,0,-2.14611,-3.375683
 ,0.\H,0,2.146302,-3.375426,0.\H,0,3.397679,-1.227069,0.\H,0,3.397679,1
 .227069,0.\H,0,-2.14611,3.375681,0.\H,0,-0.000032,4.603162,0.\H,0,2.14
 6301,3.375428,0.\\Version=EM64L-G09RevA.02\State=1-A'\HF=-611.8893236\
 MP2=-614.0675574\RMSD=5.626e-09\Dipole=0.0000842,-0.0000002,0.\Quadrup
 ole=4.6598774,4.9379698,-9.5978472,0.0000072,0.,0.\PG=CS [SG(C16H10)]\
 \@


     "IF I COULD JUST GET IT ON PAPER"
 LIFE AND INK, THEY RUN OUT AT THE SAME TIME,
 OR SO SAID MY OLD FRIEND THE SQUID.
     -- JIMMY BUFFETT, 1981
 Job cpu time:  0 days  2 hours 40 minutes 40.3 seconds.
 File lengths (MBytes):  RWF=  37372 Int=      0 D2E=      0 Chk=     13 Scr=      1
 Normal termination of Gaussian 09 at Fri Dec  3 12:54:44 2021.
