 Entering Gaussian System, Link 0=g09
 Initial command:
 /apps/software//g09/l1.exe /scratch/itamar/2482.cluster.abaxnet/Gau-31033.inp -scrdir=/scratch/itamar/2482.cluster.abaxnet/
 Entering Link 1 = /apps/software//g09/l1.exe PID=     31034.
  
 Copyright (c) 1988,1990,1992,1993,1995,1998,2003,2009, Gaussian, Inc.
                  All Rights Reserved.
  
 This is part of the Gaussian(R) 09 program.  It is based on
 the Gaussian(R) 03 system (copyright 2003, Gaussian, Inc.),
 the Gaussian(R) 98 system (copyright 1998, Gaussian, Inc.),
 the Gaussian(R) 94 system (copyright 1995, Gaussian, Inc.),
 the Gaussian 92(TM) system (copyright 1992, Gaussian, Inc.),
 the Gaussian 90(TM) system (copyright 1990, Gaussian, Inc.),
 the Gaussian 88(TM) system (copyright 1988, Gaussian, Inc.),
 the Gaussian 86(TM) system (copyright 1986, Carnegie Mellon
 University), and the Gaussian 82(TM) system (copyright 1983,
 Carnegie Mellon University). Gaussian is a federally registered
 trademark of Gaussian, Inc.
  
 This software contains proprietary and confidential information,
 including trade secrets, belonging to Gaussian, Inc.
  
 This software is provided under written license and may be
 used, copied, transmitted, or stored only in accord with that
 written license.
  
 The following legend is applicable only to US Government
 contracts under FAR:
  
                    RESTRICTED RIGHTS LEGEND
  
 Use, reproduction and disclosure by the US Government is
 subject to restrictions as set forth in subparagraphs (a)
 and (c) of the Commercial Computer Software - Restricted
 Rights clause in FAR 52.227-19.
  
 Gaussian, Inc.
 340 Quinnipiac St., Bldg. 40, Wallingford CT 06492
  
  
 ---------------------------------------------------------------
 Warning -- This program may not be used in any manner that
 competes with the business of Gaussian, Inc. or will provide
 assistance to any competitor of Gaussian, Inc.  The licensee
 of this program is prohibited from giving any competitor of
 Gaussian, Inc. access to this program.  By using this program,
 the user acknowledges that Gaussian, Inc. is engaged in the
 business of creating and licensing software in the field of
 computational chemistry and represents and warrants to the
 licensee that it is not a competitor of Gaussian, Inc. and that
 it will not use this program in any manner prohibited above.
 ---------------------------------------------------------------
  

 Cite this work as:
 Gaussian 09, Revision A.02,
 M. J. Frisch, G. W. Trucks, H. B. Schlegel, G. E. Scuseria, 
 M. A. Robb, J. R. Cheeseman, G. Scalmani, V. Barone, B. Mennucci, 
 G. A. Petersson, H. Nakatsuji, M. Caricato, X. Li, H. P. Hratchian, 
 A. F. Izmaylov, J. Bloino, G. Zheng, J. L. Sonnenberg, M. Hada, 
 M. Ehara, K. Toyota, R. Fukuda, J. Hasegawa, M. Ishida, T. Nakajima, 
 Y. Honda, O. Kitao, H. Nakai, T. Vreven, J. A. Montgomery, Jr., 
 J. E. Peralta, F. Ogliaro, M. Bearpark, J. J. Heyd, E. Brothers, 
 K. N. Kudin, V. N. Staroverov, R. Kobayashi, J. Normand, 
 K. Raghavachari, A. Rendell, J. C. Burant, S. S. Iyengar, J. Tomasi, 
 M. Cossi, N. Rega, J. M. Millam, M. Klene, J. E. Knox, J. B. Cross, 
 V. Bakken, C. Adamo, J. Jaramillo, R. Gomperts, R. E. Stratmann, 
 O. Yazyev, A. J. Austin, R. Cammi, C. Pomelli, J. W. Ochterski, 
 R. L. Martin, K. Morokuma, V. G. Zakrzewski, G. A. Voth, 
 P. Salvador, J. J. Dannenberg, S. Dapprich, A. D. Daniels, 
 O. Farkas, J. B. Foresman, J. V. Ortiz, J. Cioslowski, 
 and D. J. Fox, Gaussian, Inc., Wallingford CT, 2009.
 
 ******************************************
 Gaussian 09:  EM64L-G09RevA.02 11-Jun-2009
                 3-Dec-2021 
 ******************************************
 %Mem=3800MB
 %NProcShared=6
 Will use up to    6 processors via shared memory.
 %chk=/home/itamar/Aromaticity-test-set/T10-old-T11-heteroaromatic/O/o.chk
 -----------------------------
 #P MP2/6-311++G** DENSITY=MP2
 -----------------------------
 1/30=1,38=1/1;
 2/12=2,17=6,18=5,40=1/2;
 3/5=4,6=6,7=1111,11=9,16=1,25=1,30=1,71=1/1,2,3;
 4//1;
 5/5=2,38=5/2;
 8/6=4,10=2/1;
 9/15=1,16=-3/6;
 10/5=1,13=10/2;
 6/7=2,8=2,9=2,10=2,22=2/1;
 99/5=1,9=1/99;
 Leave Link    1 at Fri Dec  3 17:12:04 2021, MaxMem=  498073600 cpu:       0.3
 (Enter /apps/software//g09/l101.exe)
 -
 O
 -
 Symbolic Z-matrix:
 Charge =  0 Multiplicity = 1
 6                     0.        0.71768  -0.95776 
 6                     0.       -0.71768  -0.95776 
 6                     0.       -1.09514   0.34692 
 8                     0.        0.        1.15853 
 6                     0.        1.09514   0.34692 
 1                     0.        1.3734   -1.8137 
 1                     0.       -1.3734   -1.8137 
 1                     0.       -2.04976   0.84459 
 1                     0.        2.04976   0.84459 
 
 NAtoms=      9 NQM=      9 NQMF=      0 NMic=      0 NMicF=      0 NTot=      9.
                    Isotopes and Nuclear Properties:
 (Nuclear quadrupole moments (NQMom) in fm**2, nuclear magnetic moments (NMagM)
  in nuclear magnetons)

  Atom         1           2           3           4           5           6           7           8           9
 IAtWgt=          12          12          12          16          12           1           1           1           1
 AtmWgt=  12.0000000  12.0000000  12.0000000  15.9949146  12.0000000   1.0078250   1.0078250   1.0078250   1.0078250
 NucSpn=           0           0           0           0           0           1           1           1           1
 AtZEff=   0.0000000   0.0000000   0.0000000   0.0000000   0.0000000   0.0000000   0.0000000   0.0000000   0.0000000
 NQMom=    0.0000000   0.0000000   0.0000000   0.0000000   0.0000000   0.0000000   0.0000000   0.0000000   0.0000000
 NMagM=    0.0000000   0.0000000   0.0000000   0.0000000   0.0000000   2.7928460   2.7928460   2.7928460   2.7928460
 Leave Link  101 at Fri Dec  3 17:12:04 2021, MaxMem=  498073600 cpu:       0.2
 (Enter /apps/software//g09/l202.exe)
                          Input orientation:                          
 ---------------------------------------------------------------------
 Center     Atomic      Atomic             Coordinates (Angstroms)
 Number     Number       Type             X           Y           Z
 ---------------------------------------------------------------------
      1          6           0        0.000000    0.717679   -0.957756
      2          6           0        0.000000   -0.717679   -0.957756
      3          6           0        0.000000   -1.095144    0.346923
      4          8           0        0.000000    0.000000    1.158526
      5          6           0        0.000000    1.095144    0.346923
      6          1           0        0.000000    1.373404   -1.813697
      7          1           0        0.000000   -1.373404   -1.813697
      8          1           0        0.000000   -2.049761    0.844593
      9          1           0        0.000000    2.049761    0.844593
 ---------------------------------------------------------------------
                    Distance matrix (angstroms):
                    1          2          3          4          5
     1  C    0.000000
     2  C    1.435358   0.000000
     3  C    2.233498   1.358185   0.000000
     4  O    2.234662   2.234662   1.363099   0.000000
     5  C    1.358185   2.233498   2.190288   1.363099   0.000000
     6  H    1.078244   2.259483   3.280550   3.274194   2.178464
     7  H    2.259483   1.078244   2.178464   3.274194   3.280550
     8  H    3.302603   2.241184   1.076554   2.073662   3.184039
     9  H    2.241184   3.302603   3.184039   2.073662   1.076554
                    6          7          8          9
     6  H    0.000000
     7  H    2.746808   0.000000
     8  H    4.334116   2.742985   0.000000
     9  H    2.742985   4.334116   4.099522   0.000000
 Stoichiometry    C4H4O
 Framework group  C2V[C2(O),SGV(C4H4)]
 Deg. of freedom     8
 Full point group                 C2V     NOp   4
 Largest Abelian subgroup         C2V     NOp   4
 Largest concise Abelian subgroup C2      NOp   2
                         Standard orientation:                         
 ---------------------------------------------------------------------
 Center     Atomic      Atomic             Coordinates (Angstroms)
 Number     Number       Type             X           Y           Z
 ---------------------------------------------------------------------
      1          6           0        0.000000    0.717679   -0.957756
      2          6           0        0.000000   -0.717679   -0.957756
      3          6           0        0.000000   -1.095144    0.346923
      4          8           0        0.000000    0.000000    1.158526
      5          6           0        0.000000    1.095144    0.346923
      6          1           0        0.000000    1.373404   -1.813697
      7          1           0        0.000000   -1.373404   -1.813697
      8          1           0        0.000000   -2.049761    0.844593
      9          1           0        0.000000    2.049761    0.844593
 ---------------------------------------------------------------------
 Rotational constants (GHZ):      9.4611072      9.2924419      4.6880080
 Leave Link  202 at Fri Dec  3 17:12:04 2021, MaxMem=  498073600 cpu:       0.1
 (Enter /apps/software//g09/l301.exe)
 Standard basis: 6-311++G(d,p) (5D, 7F)
 Ernie: Thresh=  0.10000D-02 Tol=  0.10000D-05 Strict=F.
 There are    55 symmetry adapted basis functions of A1  symmetry.
 There are    15 symmetry adapted basis functions of A2  symmetry.
 There are    19 symmetry adapted basis functions of B1  symmetry.
 There are    49 symmetry adapted basis functions of B2  symmetry.
 Integral buffers will be    131072 words long.
 Raffenetti 1 integral format.
 Two-electron integral symmetry is turned on.
   138 basis functions,   216 primitive gaussians,   143 cartesian basis functions
    18 alpha electrons       18 beta electrons
       nuclear repulsion energy       160.9035112219 Hartrees.
 IExCor=    0 DFT=F Ex=HF Corr=None ExCW=0 ScaHFX=  1.000000
 ScaDFX=  1.000000  1.000000  1.000000  1.000000 ScalE2=  1.000000  1.000000
 IRadAn=      0 IRanWt=     -1 IRanGd=            0 ICorTp=0
 NAtoms=    9 NActive=    9 NUniq=    5 SFac= 2.43D+00 NAtFMM=   80 NAOKFM=F Big=F
 Leave Link  301 at Fri Dec  3 17:12:04 2021, MaxMem=  498073600 cpu:       0.2
 (Enter /apps/software//g09/l302.exe)
 NPDir=0 NMtPBC=     1 NCelOv=     1 NCel=       1 NClECP=     1 NCelD=      1
         NCelK=      1 NCelE2=     1 NClLst=     1 CellRange=     0.0.
 One-electron integrals computed using PRISM.
 One-electron integral symmetry used in STVInt
 NBasis=   138 RedAO= T  NBF=    55    15    19    49
 NBsUse=   138 1.00D-06 NBFU=    55    15    19    49
 Leave Link  302 at Fri Dec  3 17:12:05 2021, MaxMem=  498073600 cpu:       1.2
 (Enter /apps/software//g09/l303.exe)
 DipDrv:  MaxL=1.
 Leave Link  303 at Fri Dec  3 17:12:05 2021, MaxMem=  498073600 cpu:       0.2
 (Enter /apps/software//g09/l401.exe)
 Harris functional with IExCor=  205 diagonalized for initial guess.
 ExpMin= 3.60D-02 ExpMax= 8.59D+03 ExpMxC= 1.30D+03 IAcc=3 IRadAn=         0 AccDes= 0.00D+00
 HarFok:  IExCor=  205 AccDes= 0.00D+00 IRadAn=         0 IDoV= 1
 ScaDFX=  1.000000  1.000000  1.000000  1.000000
 FoFCou: FMM=F IPFlag=           0 FMFlag=      100000 FMFlg1=           0
         NFxFlg=           0 DoJE=T BraDBF=F KetDBF=T FulRan=T
         Omega=  0.000000  0.000000  1.000000  0.000000  0.000000 ICntrl=     500 IOpCl=  0
         NMat0=    1 NMatS0=    1 NMatT0=    0 NMatD0=    1 NMtDS0=    0 NMtDT0=    0
         I1Cent=           4 NGrid=           0.
 Petite list used in FoFCou.
 Harris En= -228.956063172463    
 Initial guess orbital symmetries:
       Occupied  (A1) (A1) (B2) (B2) (A1) (A1) (A1) (B2) (B2) (A1)
                 (A1) (B2) (B1) (B2) (A1) (A1) (B1) (A2)
       Virtual   (B1) (A2) (A1) (B2) (A1) (A1) (B2) (A1) (B2) (B1)
                 (A1) (A2) (B1) (A1) (B2) (B2) (A1) (B2) (A1) (B2)
                 (A2) (A1) (B2) (A1) (B2) (A1) (B1) (B2) (A1) (B2)
                 (B2) (A1) (B2) (A1) (B2) (A1) (A1) (B1) (B2) (A2)
                 (B1) (A1) (A2) (B2) (A1) (B2) (A1) (B2) (A1) (A1)
                 (B2) (B2) (B1) (B2) (A1) (B1) (B1) (A2) (B2) (A1)
                 (A2) (B2) (A1) (B1) (A1) (A1) (B2) (A2) (A1) (B2)
                 (B1) (A1) (B1) (A1) (B2) (A2) (A1) (B2) (B2) (A2)
                 (A1) (B1) (B2) (A2) (B2) (A1) (A1) (B2) (B1) (A2)
                 (A1) (A1) (B2) (B1) (A1) (B2) (B2) (A2) (A1) (B2)
                 (B1) (A1) (A2) (B2) (B2) (A1) (A1) (A1) (B2) (A1)
                 (B2) (B2) (B1) (A1) (B2) (A1) (B2) (A1) (B2) (A1)
 The electronic state of the initial guess is 1-A1.
 Leave Link  401 at Fri Dec  3 17:12:05 2021, MaxMem=  498073600 cpu:       1.9
 (Enter /apps/software//g09/l502.exe)
 Closed shell SCF:
 Requested convergence on RMS density matrix=1.00D-08 within 128 cycles.
 Requested convergence on MAX density matrix=1.00D-06.
 Requested convergence on             energy=1.00D-06.
 No special actions if energy rises.
 Using DIIS extrapolation, IDIIS=  1040.
 Integral symmetry usage will be decided dynamically.
 Keep R1 ints in memory in canonical form, NReq=54583593.
 IEnd=       81703 IEndB=       81703 NGot=   498073600 MDV=   445020146
 LenX=   445020146 LenY=   444999256
 Symmetry not used in FoFDir.
 MinBra= 0 MaxBra= 2 Meth= 1.
 IRaf=       0 NMat=   1 IRICut=       1 DoRegI=T DoRafI=F ISym2E= 0 JSym2E=0.

 Cycle   1  Pass 1  IDiag  1:
 E= -228.458258018186    
 DIIS: error= 6.42D-02 at cycle   1 NSaved=   1.
 NSaved= 1 IEnMin= 1 EnMin= -228.458258018186     IErMin= 1 ErrMin= 6.42D-02
 ErrMax= 6.42D-02 EMaxC= 1.00D-01 BMatC= 4.47D-01 BMatP= 4.47D-01
 IDIUse=3 WtCom= 3.58D-01 WtEn= 6.42D-01
 Coeff-Com:  0.100D+01
 Coeff-En:   0.100D+01
 Coeff:      0.100D+01
 Gap=     0.313 Goal=   None    Shift=    0.000
 GapD=    0.313 DampG=1.000 DampE=0.500 DampFc=0.5000 IDamp=-1.
 Damping current iteration by 5.00D-01
 RMSDP=5.32D-03 MaxDP=1.64D-01              OVMax= 1.72D-01

 Cycle   2  Pass 1  IDiag  1:
 E= -228.575579200570     Delta-E=       -0.117321182383 Rises=F Damp=T
 DIIS: error= 3.32D-02 at cycle   2 NSaved=   2.
 NSaved= 2 IEnMin= 2 EnMin= -228.575579200570     IErMin= 2 ErrMin= 3.32D-02
 ErrMax= 3.32D-02 EMaxC= 1.00D-01 BMatC= 9.92D-02 BMatP= 4.47D-01
 IDIUse=3 WtCom= 6.68D-01 WtEn= 3.32D-01
 Coeff-Com: -0.680D+00 0.168D+01
 Coeff-En:   0.000D+00 0.100D+01
 Coeff:     -0.454D+00 0.145D+01
 Gap=     0.368 Goal=   None    Shift=    0.000
 RMSDP=2.67D-03 MaxDP=5.90D-02 DE=-1.17D-01 OVMax= 6.28D-02

 Cycle   3  Pass 1  IDiag  1:
 E= -228.680521367821     Delta-E=       -0.104942167251 Rises=F Damp=F
 DIIS: error= 8.74D-03 at cycle   3 NSaved=   3.
 NSaved= 3 IEnMin= 3 EnMin= -228.680521367821     IErMin= 3 ErrMin= 8.74D-03
 ErrMax= 8.74D-03 EMaxC= 1.00D-01 BMatC= 2.37D-03 BMatP= 9.92D-02
 IDIUse=3 WtCom= 9.13D-01 WtEn= 8.74D-02
 Coeff-Com: -0.148D+00 0.273D+00 0.875D+00
 Coeff-En:   0.000D+00 0.000D+00 0.100D+01
 Coeff:     -0.135D+00 0.249D+00 0.886D+00
 Gap=     0.369 Goal=   None    Shift=    0.000
 RMSDP=6.30D-04 MaxDP=9.18D-03 DE=-1.05D-01 OVMax= 2.54D-02

 Cycle   4  Pass 1  IDiag  1:
 E= -228.682629142031     Delta-E=       -0.002107774210 Rises=F Damp=F
 DIIS: error= 2.43D-03 at cycle   4 NSaved=   4.
 NSaved= 4 IEnMin= 4 EnMin= -228.682629142031     IErMin= 4 ErrMin= 2.43D-03
 ErrMax= 2.43D-03 EMaxC= 1.00D-01 BMatC= 3.98D-04 BMatP= 2.37D-03
 IDIUse=3 WtCom= 9.76D-01 WtEn= 2.43D-02
 Coeff-Com: -0.238D-01 0.293D-01 0.312D+00 0.682D+00
 Coeff-En:   0.000D+00 0.000D+00 0.000D+00 0.100D+01
 Coeff:     -0.232D-01 0.285D-01 0.305D+00 0.690D+00
 Gap=     0.364 Goal=   None    Shift=    0.000
 RMSDP=2.00D-04 MaxDP=4.51D-03 DE=-2.11D-03 OVMax= 5.04D-03

 Cycle   5  Pass 1  IDiag  1:
 E= -228.682957090598     Delta-E=       -0.000327948568 Rises=F Damp=F
 DIIS: error= 1.05D-03 at cycle   5 NSaved=   5.
 NSaved= 5 IEnMin= 5 EnMin= -228.682957090598     IErMin= 5 ErrMin= 1.05D-03
 ErrMax= 1.05D-03 EMaxC= 1.00D-01 BMatC= 1.53D-05 BMatP= 3.98D-04
 IDIUse=3 WtCom= 9.90D-01 WtEn= 1.05D-02
 Coeff-Com:  0.134D-01-0.250D-01-0.622D-01-0.130D-01 0.109D+01
 Coeff-En:   0.000D+00 0.000D+00 0.000D+00 0.000D+00 0.100D+01
 Coeff:      0.132D-01-0.248D-01-0.616D-01-0.128D-01 0.109D+01
 Gap=     0.364 Goal=   None    Shift=    0.000
 RMSDP=1.06D-04 MaxDP=1.50D-03 DE=-3.28D-04 OVMax= 3.99D-03

 Cycle   6  Pass 1  IDiag  1:
 E= -228.683002655190     Delta-E=       -0.000045564592 Rises=F Damp=F
 DIIS: error= 2.69D-04 at cycle   6 NSaved=   6.
 NSaved= 6 IEnMin= 6 EnMin= -228.683002655190     IErMin= 6 ErrMin= 2.69D-04
 ErrMax= 2.69D-04 EMaxC= 1.00D-01 BMatC= 3.24D-06 BMatP= 1.53D-05
 IDIUse=3 WtCom= 9.97D-01 WtEn= 2.69D-03
 Coeff-Com:  0.269D-02-0.392D-02-0.236D-01-0.913D-01-0.420D-01 0.116D+01
 Coeff-En:   0.000D+00 0.000D+00 0.000D+00 0.000D+00 0.000D+00 0.100D+01
 Coeff:      0.268D-02-0.391D-02-0.235D-01-0.910D-01-0.419D-01 0.116D+01
 Gap=     0.365 Goal=   None    Shift=    0.000
 RMSDP=4.28D-05 MaxDP=6.63D-04 DE=-4.56D-05 OVMax= 2.17D-03

 Cycle   7  Pass 1  IDiag  1:
 E= -228.683012484363     Delta-E=       -0.000009829173 Rises=F Damp=F
 DIIS: error= 1.51D-04 at cycle   7 NSaved=   7.
 NSaved= 7 IEnMin= 7 EnMin= -228.683012484363     IErMin= 7 ErrMin= 1.51D-04
 ErrMax= 1.51D-04 EMaxC= 1.00D-01 BMatC= 4.81D-07 BMatP= 3.24D-06
 IDIUse=3 WtCom= 9.98D-01 WtEn= 1.51D-03
 Coeff-Com: -0.105D-02 0.215D-02 0.628D-02-0.148D-01-0.129D+00 0.129D+00
 Coeff-Com:  0.101D+01
 Coeff-En:   0.000D+00 0.000D+00 0.000D+00 0.000D+00 0.000D+00 0.000D+00
 Coeff-En:   0.100D+01
 Coeff:     -0.104D-02 0.214D-02 0.627D-02-0.147D-01-0.129D+00 0.129D+00
 Coeff:      0.101D+01
 Gap=     0.365 Goal=   None    Shift=    0.000
 RMSDP=1.49D-05 MaxDP=3.81D-04 DE=-9.83D-06 OVMax= 7.25D-04

 Cycle   8  Pass 1  IDiag  1:
 E= -228.683013998652     Delta-E=       -0.000001514289 Rises=F Damp=F
 DIIS: error= 5.21D-05 at cycle   8 NSaved=   8.
 NSaved= 8 IEnMin= 8 EnMin= -228.683013998652     IErMin= 8 ErrMin= 5.21D-05
 ErrMax= 5.21D-05 EMaxC= 1.00D-01 BMatC= 7.13D-08 BMatP= 4.81D-07
 IDIUse=1 WtCom= 1.00D+00 WtEn= 0.00D+00
 Coeff-Com: -0.677D-03 0.101D-02 0.592D-02 0.187D-01 0.868D-02-0.269D+00
 Coeff-Com: -0.117D-02 0.124D+01
 Coeff:     -0.677D-03 0.101D-02 0.592D-02 0.187D-01 0.868D-02-0.269D+00
 Coeff:     -0.117D-02 0.124D+01
 Gap=     0.365 Goal=   None    Shift=    0.000
 RMSDP=9.20D-06 MaxDP=2.92D-04 DE=-1.51D-06 OVMax= 4.52D-04

 Cycle   9  Pass 1  IDiag  1:
 E= -228.683014253442     Delta-E=       -0.000000254790 Rises=F Damp=F
 DIIS: error= 3.99D-06 at cycle   9 NSaved=   9.
 NSaved= 9 IEnMin= 9 EnMin= -228.683014253442     IErMin= 9 ErrMin= 3.99D-06
 ErrMax= 3.99D-06 EMaxC= 1.00D-01 BMatC= 1.03D-09 BMatP= 7.13D-08
 IDIUse=1 WtCom= 1.00D+00 WtEn= 0.00D+00
 Coeff-Com:  0.146D-03-0.230D-03-0.145D-02-0.368D-02 0.335D-02 0.497D-01
 Coeff-Com: -0.149D-01-0.293D+00 0.126D+01
 Coeff:      0.146D-03-0.230D-03-0.145D-02-0.368D-02 0.335D-02 0.497D-01
 Coeff:     -0.149D-01-0.293D+00 0.126D+01
 Gap=     0.365 Goal=   None    Shift=    0.000
 RMSDP=8.89D-07 MaxDP=1.80D-05 DE=-2.55D-07 OVMax= 2.64D-05

 Cycle  10  Pass 1  IDiag  1:
 E= -228.683014256477     Delta-E=       -0.000000003035 Rises=F Damp=F
 DIIS: error= 1.07D-06 at cycle  10 NSaved=  10.
 NSaved=10 IEnMin=10 EnMin= -228.683014256477     IErMin=10 ErrMin= 1.07D-06
 ErrMax= 1.07D-06 EMaxC= 1.00D-01 BMatC= 7.03D-11 BMatP= 1.03D-09
 IDIUse=1 WtCom= 1.00D+00 WtEn= 0.00D+00
 Coeff-Com: -0.260D-04 0.453D-04 0.209D-03 0.652D-03-0.133D-02-0.676D-02
 Coeff-Com:  0.990D-02 0.360D-01-0.365D+00 0.133D+01
 Coeff:     -0.260D-04 0.453D-04 0.209D-03 0.652D-03-0.133D-02-0.676D-02
 Coeff:      0.990D-02 0.360D-01-0.365D+00 0.133D+01
 Gap=     0.365 Goal=   None    Shift=    0.000
 RMSDP=2.77D-07 MaxDP=9.72D-06 DE=-3.04D-09 OVMax= 5.29D-06

 Cycle  11  Pass 1  IDiag  1:
 E= -228.683014256654     Delta-E=       -0.000000000177 Rises=F Damp=F
 DIIS: error= 2.10D-07 at cycle  11 NSaved=  11.
 NSaved=11 IEnMin=11 EnMin= -228.683014256654     IErMin=11 ErrMin= 2.10D-07
 ErrMax= 2.10D-07 EMaxC= 1.00D-01 BMatC= 4.13D-12 BMatP= 7.03D-11
 IDIUse=1 WtCom= 1.00D+00 WtEn= 0.00D+00
 Coeff-Com: -0.221D-05 0.317D-05 0.136D-04 0.409D-04 0.216D-03-0.125D-02
 Coeff-Com: -0.483D-03 0.452D-02 0.368D-01-0.388D+00 0.135D+01
 Coeff:     -0.221D-05 0.317D-05 0.136D-04 0.409D-04 0.216D-03-0.125D-02
 Coeff:     -0.483D-03 0.452D-02 0.368D-01-0.388D+00 0.135D+01
 Gap=     0.365 Goal=   None    Shift=    0.000
 RMSDP=6.73D-08 MaxDP=1.41D-06 DE=-1.77D-10 OVMax= 1.39D-06

 Cycle  12  Pass 1  IDiag  1:
 E= -228.683014256665     Delta-E=       -0.000000000011 Rises=F Damp=F
 DIIS: error= 4.24D-08 at cycle  12 NSaved=  12.
 NSaved=12 IEnMin=12 EnMin= -228.683014256665     IErMin=12 ErrMin= 4.24D-08
 ErrMax= 4.24D-08 EMaxC= 1.00D-01 BMatC= 1.66D-13 BMatP= 4.13D-12
 IDIUse=1 WtCom= 1.00D+00 WtEn= 0.00D+00
 Coeff-Com:  0.183D-05-0.298D-05-0.184D-04-0.476D-04 0.356D-04 0.696D-03
 Coeff-Com: -0.338D-03-0.387D-02 0.172D-01-0.104D-01-0.242D+00 0.124D+01
 Coeff:      0.183D-05-0.298D-05-0.184D-04-0.476D-04 0.356D-04 0.696D-03
 Coeff:     -0.338D-03-0.387D-02 0.172D-01-0.104D-01-0.242D+00 0.124D+01
 Gap=     0.365 Goal=   None    Shift=    0.000
 RMSDP=1.49D-08 MaxDP=3.40D-07 DE=-1.13D-11 OVMax= 3.80D-07

 Cycle  13  Pass 1  IDiag  1:
 E= -228.683014256664     Delta-E=        0.000000000000 Rises=F Damp=F
 DIIS: error= 8.80D-09 at cycle  13 NSaved=  13.
 NSaved=13 IEnMin=12 EnMin= -228.683014256665     IErMin=13 ErrMin= 8.80D-09
 ErrMax= 8.80D-09 EMaxC= 1.00D-01 BMatC= 5.66D-15 BMatP= 1.66D-13
 IDIUse=1 WtCom= 1.00D+00 WtEn= 0.00D+00
 Coeff-Com: -0.472D-06 0.805D-06 0.433D-05 0.122D-04-0.159D-04-0.153D-03
 Coeff-Com:  0.143D-03 0.803D-03-0.517D-02 0.105D-01 0.415D-01-0.389D+00
 Coeff-Com:  0.134D+01
 Coeff:     -0.472D-06 0.805D-06 0.433D-05 0.122D-04-0.159D-04-0.153D-03
 Coeff:      0.143D-03 0.803D-03-0.517D-02 0.105D-01 0.415D-01-0.389D+00
 Coeff:      0.134D+01
 Gap=     0.365 Goal=   None    Shift=    0.000
 RMSDP=4.62D-09 MaxDP=2.09D-07 DE= 3.41D-13 OVMax= 7.95D-08

 SCF Done:  E(RHF) =  -228.683014257     A.U. after   13 cycles
             Convg  =    0.4620D-08             -V/T =  2.0013
 KE= 2.283907959617D+02 PE=-8.571148506467D+02 EE= 2.391375292065D+02
 Leave Link  502 at Fri Dec  3 17:12:08 2021, MaxMem=  498073600 cpu:      15.9
 (Enter /apps/software//g09/l801.exe)
 ExpMin= 3.60D-02 ExpMax= 8.59D+03 ExpMxC= 1.30D+03 IAcc=3 IRadAn=         5 AccDes= 0.00D+00
 HarFok:  IExCor=  205 AccDes= 0.00D+00 IRadAn=         5 IDoV=-2
 ScaDFX=  1.000000  1.000000  1.000000  1.000000
 Largest valence mixing into a core orbital is  1.40D-04
 Largest core mixing into a valence orbital is  4.57D-05
 Range of M.O.s used for correlation:     6   138
 NBasis=   138 NAE=    18 NBE=    18 NFC=     5 NFV=     0
 NROrb=    133 NOA=    13 NOB=    13 NVA=   120 NVB=   120

 **** Warning!!: The largest alpha MO coefficient is  0.14128828D+03

 Leave Link  801 at Fri Dec  3 17:12:08 2021, MaxMem=  498073600 cpu:       0.9
 (Enter /apps/software//g09/l906.exe)
 Frozen-core derivative calculation, NFC=   5 NFV=   0.
 FulOut=F Deriv=T AODrv=F NAtomX=     9
   MMem=         629  MDisk=          13 MDiskD=          13
  W3Min=      355212 MinDsk=      594544 NBas6D=         143
 NBas2D=       10503    NTT=       10296    LW2=     2040000
    MDV=   497829564 MDiskM=       48157 NBas2p=        5520
 Fully in-core method, ICMem=   117109256.
 IMap=   1   2   3   4   5   6   7   8   9  10  11  12  13  14  15  16  17  18
 JobTyp=1 Pass  1 fully in-core, NPsUse=  6.
 Compute canonical integrals, IntTyp=   4.
 Symmetry not used in FoFDir.
 MinBra= 0 MaxBra= 2 Meth= 1.
 IRaf=       0 NMat=   1 IRICut=       1 DoRegI=T DoRafI=F ISym2E= 0 JSym2E=0.
 Spin components of T(2) and E(2):
     alpha-alpha T2 =       0.3377285672D-01 E2=     -0.9908751698D-01
     alpha-beta  T2 =       0.1840816512D+00 E2=     -0.5547659337D+00
     beta-beta   T2 =       0.3377285672D-01 E2=     -0.9908751698D-01
 The integrals were generated   1 times.
 ANorm=    0.1118761532D+01
 E2 =    -0.7529409677D+00 EUMP2 =    -0.22943595522434D+03
 Leave Link  906 at Fri Dec  3 17:12:34 2021, MaxMem=  498073600 cpu:     153.5
 (Enter /apps/software//g09/l1002.exe)
 Minotr:  Closed shell wavefunction.
          Computing MP2/KS-MP2 derivatives.
          Using Z-Vector for PSCF gradient.
          Skipping F1 and S1 gradient terms here.
          Frozen-core window.
          Direct CPHF calculation.
          Differentiating once with respect to electric field.
                with respect to dipole field.
          Electric field/nuclear overlap derivatives assumed to be zero.
          Using symmetry in CPHF.
          Requested convergence is 1.0D-10 RMS, and 1.0D-09 maximum.
          NewPWx=F KeepS1=T KeepF1=T KeepIn=T MapXYZ=F SortEE=F KeepMc=T.
          MDV=     498073524 using IRadAn=       0.
          Keep R1 ints in memory in canonical form, NReq=53830508.
 Symmetry not used in FoFDir.
 MinBra= 0 MaxBra= 2 Meth= 1.
 IRaf=       0 NMat=   1 IRICut=       1 DoRegI=T DoRafI=F ISym2E= 0 JSym2E=0.
          Solving linear equations separately, MaxMat=       0.
          There are     1 degrees of freedom in the 1st order CPHF.  IDoFFX=0.
 LinEq1:  Iter=  0 NonCon=     1 RMS=5.02D-03 Max=6.82D-02
 AX will form     1 AO Fock derivatives at one time.
 LinEq1:  Iter=  1 NonCon=     1 RMS=1.40D-03 Max=2.07D-02
 LinEq1:  Iter=  2 NonCon=     1 RMS=6.58D-04 Max=1.35D-02
 LinEq1:  Iter=  3 NonCon=     1 RMS=2.56D-04 Max=4.59D-03
 LinEq1:  Iter=  4 NonCon=     1 RMS=8.92D-05 Max=1.35D-03
 LinEq1:  Iter=  5 NonCon=     1 RMS=2.16D-05 Max=3.34D-04
 LinEq1:  Iter=  6 NonCon=     1 RMS=6.04D-06 Max=6.99D-05
 LinEq1:  Iter=  7 NonCon=     1 RMS=1.81D-06 Max=1.87D-05
 LinEq1:  Iter=  8 NonCon=     1 RMS=2.75D-07 Max=2.95D-06
 LinEq1:  Iter=  9 NonCon=     1 RMS=4.54D-08 Max=5.14D-07
 LinEq1:  Iter= 10 NonCon=     1 RMS=8.78D-09 Max=8.22D-08
 LinEq1:  Iter= 11 NonCon=     1 RMS=1.39D-09 Max=1.46D-08
 LinEq1:  Iter= 12 NonCon=     1 RMS=1.80D-10 Max=1.56D-09
 LinEq1:  Iter= 13 NonCon=     0 RMS=2.47D-11 Max=2.69D-10
 Linear equations converged to 1.000D-10 1.000D-09 after    13 iterations.
 End of Minotr Frequency-dependent properties file   721 does not exist.
 End of Minotr Frequency-dependent properties file   722 does not exist.
 Leave Link 1002 at Fri Dec  3 17:12:36 2021, MaxMem=  498073600 cpu:      16.1
 (Enter /apps/software//g09/l601.exe)
 Copying SCF densities to generalized density rwf, IOpCl= 0 IROHF=0.

 **********************************************************************

            Population analysis using the MP2 density.

 **********************************************************************

 Orbital symmetries:
       Occupied  (A1) (B2) (A1) (A1) (B2) (A1) (A1) (B2) (B2) (A1)
                 (A1) (B1) (B2) (B2) (A1) (A1) (B1) (A2)
       Virtual   (A1) (B2) (A1) (B2) (B1) (A1) (B1) (A1) (B2) (A2)
                 (A2) (A1) (B2) (A1) (B1) (A1) (B2) (B2) (B2) (A1)
                 (A2) (B2) (A1) (B1) (A1) (A1) (B2) (B2) (B2) (A1)
                 (B2) (A1) (A1) (B2) (A1) (B2) (A1) (B2) (B1) (A2)
                 (B1) (A1) (B2) (A2) (A1) (A1) (B2) (A1) (B2) (B2)
                 (A1) (B2) (B2) (A1) (B1) (B2) (B1) (B1) (A2) (A1)
                 (B2) (A2) (A1) (B1) (A1) (A1) (B2) (A2) (A1) (B2)
                 (B1) (A1) (B1) (A1) (B2) (A2) (A1) (B2) (B2) (A2)
                 (A1) (B1) (B2) (A2) (B2) (A1) (A1) (A1) (B2) (A1)
                 (B2) (B1) (A1) (B2) (A2) (B2) (B1) (A2) (A1) (B2)
                 (B1) (A2) (A1) (B2) (B2) (A1) (A1) (A1) (B2) (A1)
                 (B2) (B2) (B1) (A1) (B2) (A1) (B2) (A1) (B2) (A1)
 The electronic state is 1-A1.
 Alpha  occ. eigenvalues --  -20.62424 -11.29179 -11.29175 -11.23519 -11.23423
 Alpha  occ. eigenvalues --   -1.46074  -1.08716  -1.00820  -0.80956  -0.78346
 Alpha  occ. eigenvalues --   -0.74163  -0.63312  -0.61242  -0.58028  -0.56672
 Alpha  occ. eigenvalues --   -0.54249  -0.39921  -0.32231
 Alpha virt. eigenvalues --    0.04224   0.04851   0.05494   0.06786   0.10404
 Alpha virt. eigenvalues --    0.11622   0.12934   0.15057   0.15071   0.15163
 Alpha virt. eigenvalues --    0.15622   0.16199   0.18025   0.18843   0.19601
 Alpha virt. eigenvalues --    0.19694   0.19708   0.21097   0.22604   0.22678
 Alpha virt. eigenvalues --    0.26951   0.27924   0.32234   0.35450   0.36262
 Alpha virt. eigenvalues --    0.36833   0.38610   0.41022   0.42821   0.43448
 Alpha virt. eigenvalues --    0.44154   0.45103   0.52142   0.61524   0.64251
 Alpha virt. eigenvalues --    0.64299   0.70253   0.71197   0.72750   0.73577
 Alpha virt. eigenvalues --    0.77628   0.79414   0.81687   0.83308   0.89208
 Alpha virt. eigenvalues --    0.94191   0.96866   0.97860   0.99285   1.01235
 Alpha virt. eigenvalues --    1.05650   1.09301   1.09999   1.13256   1.17579
 Alpha virt. eigenvalues --    1.26411   1.29951   1.34086   1.35856   1.39570
 Alpha virt. eigenvalues --    1.42477   1.46526   1.48710   1.62270   1.75002
 Alpha virt. eigenvalues --    1.76977   1.77593   1.82178   1.90787   1.94981
 Alpha virt. eigenvalues --    1.95441   1.97471   2.04117   2.04690   2.06955
 Alpha virt. eigenvalues --    2.10253   2.19436   2.20332   2.27631   2.31360
 Alpha virt. eigenvalues --    2.32914   2.33905   2.50125   2.60497   2.63811
 Alpha virt. eigenvalues --    2.66267   2.83004   2.92926   2.96188   3.01957
 Alpha virt. eigenvalues --    3.05181   3.05627   3.08360   3.08387   3.08650
 Alpha virt. eigenvalues --    3.09842   3.17194   3.37740   3.44281   3.46102
 Alpha virt. eigenvalues --    3.55582   3.58045   3.63910   3.75033   3.87752
 Alpha virt. eigenvalues --    3.89574   3.96363   4.39210   4.40874   4.47274
 Alpha virt. eigenvalues --    4.49476   4.80518   5.52272   5.98111   6.35536
 Alpha virt. eigenvalues --   24.82967  24.99747  25.32944  25.39355  51.57541
          Condensed to atoms (all electrons):
              1          2          3          4          5          6
     1  C    7.370310  -1.570047   0.993914   0.031628  -0.982440   0.457013
     2  C   -1.570047   7.370310  -0.982440   0.031628   0.993914  -0.105982
     3  C    0.993914  -0.982440   6.401572  -0.028271  -0.553659   0.039841
     4  O    0.031628   0.031628  -0.028271   8.146831  -0.028271   0.010730
     5  C   -0.982440   0.993914  -0.553659  -0.028271   6.401572  -0.096019
     6  H    0.457013  -0.105982   0.039841   0.010730  -0.096019   0.527149
     7  H   -0.105982   0.457013  -0.096019   0.010730   0.039841  -0.004649
     8  H    0.019201  -0.092664   0.444083  -0.069165   0.008375   0.000423
     9  H   -0.092664   0.019201   0.008375  -0.069165   0.444083  -0.004687
              7          8          9
     1  C   -0.105982   0.019201  -0.092664
     2  C    0.457013  -0.092664   0.019201
     3  C   -0.096019   0.444083   0.008375
     4  O    0.010730  -0.069165  -0.069165
     5  C    0.039841   0.008375   0.444083
     6  H   -0.004649   0.000423  -0.004687
     7  H    0.527149  -0.004687   0.000423
     8  H   -0.004687   0.504615  -0.000668
     9  H    0.000423  -0.000668   0.504615
 Mulliken atomic charges:
              1
     1  C   -0.120933
     2  C   -0.120933
     3  C   -0.227397
     4  O   -0.036674
     5  C   -0.227397
     6  H    0.176181
     7  H    0.176181
     8  H    0.190487
     9  H    0.190487
 Sum of Mulliken atomic charges =   0.00000
 Mulliken charges with hydrogens summed into heavy atoms:
              1
     1  C    0.055248
     2  C    0.055248
     3  C   -0.036911
     4  O   -0.036674
     5  C   -0.036911
 Sum of Mulliken charges with hydrogens summed into heavy atoms =   0.00000
 Electronic spatial extent (au):  <R**2>=            292.4634
 Charge=              0.0000 electrons
 Dipole moment (field-independent basis, Debye):
    X=              0.0000    Y=              0.0000    Z=             -0.6912  Tot=              0.6912
 Quadrupole moment (field-independent basis, Debye-Ang):
   XX=            -32.7716   YY=            -24.6448   ZZ=            -28.8241
   XY=              0.0000   XZ=              0.0000   YZ=              0.0000
 Traceless Quadrupole moment (field-independent basis, Debye-Ang):
   XX=             -4.0247   YY=              4.1021   ZZ=             -0.0773
   XY=              0.0000   XZ=              0.0000   YZ=              0.0000
 Octapole moment (field-independent basis, Debye-Ang**2):
  XXX=              0.0000  YYY=              0.0000  ZZZ=             -2.4156  XYY=              0.0000
  XXY=              0.0000  XXZ=              3.3795  XZZ=              0.0000  YZZ=              0.0000
  YYZ=              4.3467  XYZ=              0.0000
 Hexadecapole moment (field-independent basis, Debye-Ang**3):
 XXXX=            -38.7862 YYYY=           -168.3960 ZZZZ=           -170.2964 XXXY=              0.0000
 XXXZ=              0.0000 YYYX=              0.0000 YYYZ=              0.0000 ZZZX=              0.0000
 ZZZY=              0.0000 XXYY=            -43.4691 XXZZ=            -38.2270 YYZZ=            -49.2372
 XXYZ=              0.0000 YYXZ=              0.0000 ZZXY=              0.0000
 N-N= 1.609035112219D+02 E-N=-8.577167220016D+02  KE= 2.293497087718D+02
 Symmetry A1   KE= 1.436767007441D+02
 Symmetry A2   KE= 2.442997687483D+00
 Symmetry B1   KE= 6.338767737795D+00
 Symmetry B2   KE= 7.689124260240D+01
 No NMR shielding tensors so no spin-rotation constants.
 Leave Link  601 at Fri Dec  3 17:12:37 2021, MaxMem=  498073600 cpu:       2.4
 (Enter /apps/software//g09/l9999.exe)
 1\1\GINC-DLT06\SP\RMP2-FC\6-311++G(d,p)\C4H4O1\ITAMAR\03-Dec-2021\0\\#
 P MP2/6-311++G** DENSITY=MP2\\O\\0,1\C,0,0.,0.717679,-0.957756\C,0,0.,
 -0.717679,-0.957756\C,0,0.,-1.095144,0.346923\O,0,0.,0.,1.158526\C,0,0
 .,1.095144,0.346923\H,0,0.,1.373404,-1.813697\H,0,0.,-1.373404,-1.8136
 97\H,0,0.,-2.049761,0.844593\H,0,0.,2.049761,0.844593\\Version=EM64L-G
 09RevA.02\State=1-A1\HF=-228.6830143\MP2=-229.4359552\RMSD=4.620e-09\D
 ipole=0.,0.,-0.2719572\Quadrupole=-2.9922975,3.0497765,-0.057479,0.,0.
 ,0.\PG=C02V [C2(O1),SGV(C4H4)]\\@


 Sacred cows make the best hamburger.
                               -- Mark Twain
 Job cpu time:  0 days  0 hours  3 minutes 13.7 seconds.
 File lengths (MBytes):  RWF=     10 Int=      0 D2E=      0 Chk=      3 Scr=      1
 Normal termination of Gaussian 09 at Fri Dec  3 17:12:37 2021.
