Chair-15                                                                
SP        RMP2-FC                                                     6-311++G(d,p)       
Number of atoms                            I               12
Info1-9                                    I   N=           9
          23          21           0           0           0         110
           1           2           1
Charge                                     I                0
Multiplicity                               I                1
Number of electrons                        I               42
Number of alpha electrons                  I               21
Number of beta electrons                   I               21
Number of basis functions                  I              174
Number of independent functions            I              174
Number of point charges in /Mol/           I                0
Number of translation vectors              I                0
Atomic numbers                             I   N=          12
           6           6           6           6           6           6
           1           1           1           1           1           1
Nuclear charges                            R   N=          12
  6.00000000E+00  6.00000000E+00  6.00000000E+00  6.00000000E+00  6.00000000E+00
  6.00000000E+00  1.00000000E+00  1.00000000E+00  1.00000000E+00  1.00000000E+00
  1.00000000E+00  1.00000000E+00
Current cartesian coordinates              R   N=          36
  1.14686723E-01  2.61444153E+00  4.16000868E-32 -1.14686723E-01  1.31589994E+00
  2.28654594E+00  1.14686723E-01 -1.31589994E+00  2.28654594E+00 -1.14686723E-01
 -2.61444153E+00 -1.54074396E-32  1.14686723E-01 -1.31589994E+00 -2.28654594E+00
 -1.14686723E-01  1.31589994E+00 -2.28654594E+00  9.43785691E-02  4.66550837E+00
 -2.00296714E-32 -9.07129006E-02  2.35065463E+00  4.05599857E+00  9.07129006E-02
 -2.35065463E+00  4.05599857E+00 -9.43785691E-02 -4.66550837E+00 -1.69481835E-32
  9.07129006E-02 -2.35065463E+00 -4.05599857E+00 -9.07129006E-02  2.35065463E+00
 -4.05599857E+00
Force Field                                I                0
Int Atom Types                             I   N=          12
           0           0           0           0           0           0
           0           0           0           0           0           0
MM charges                                 R   N=          12
  0.00000000E+00  0.00000000E+00  0.00000000E+00  0.00000000E+00  0.00000000E+00
  0.00000000E+00  0.00000000E+00  0.00000000E+00  0.00000000E+00  0.00000000E+00
  0.00000000E+00  0.00000000E+00
Integer atomic weights                     I   N=          12
          12          12          12          12          12          12
           1           1           1           1           1           1
Real atomic weights                        R   N=          12
  1.20000000E+01  1.20000000E+01  1.20000000E+01  1.20000000E+01  1.20000000E+01
  1.20000000E+01  1.00782504E+00  1.00782504E+00  1.00782504E+00  1.00782504E+00
  1.00782504E+00  1.00782504E+00
Atom fragment info                         I   N=          12
           0           0           0           0           0           0
           0           0           0           0           0           0
Atom residue num                           I   N=          12
           0           0           0           0           0           0
           0           0           0           0           0           0
Nuclear spins                              I   N=          12
           0           0           0           0           0           0
           1           1           1           1           1           1
Nuclear ZEff                               R   N=          12
 -3.60000000E+00 -3.60000000E+00 -3.60000000E+00 -3.60000000E+00 -3.60000000E+00
 -3.60000000E+00 -1.00000000E+00 -1.00000000E+00 -1.00000000E+00 -1.00000000E+00
 -1.00000000E+00 -1.00000000E+00
Nuclear QMom                               R   N=          12
  0.00000000E+00  0.00000000E+00  0.00000000E+00  0.00000000E+00  0.00000000E+00
  0.00000000E+00  0.00000000E+00  0.00000000E+00  0.00000000E+00  0.00000000E+00
  0.00000000E+00  0.00000000E+00
Nuclear GFac                               R   N=          12
  0.00000000E+00  0.00000000E+00  0.00000000E+00  0.00000000E+00  0.00000000E+00
  0.00000000E+00  2.79284600E+00  2.79284600E+00  2.79284600E+00  2.79284600E+00
  2.79284600E+00  2.79284600E+00
MicOpt                                     I   N=          12
          -1          -1          -1          -1          -1          -1
          -1          -1          -1          -1          -1          -1
Number of contracted shells                I               66
Number of primitive shells                 I              120
Pure/Cartesian d shells                    I                0
Pure/Cartesian f shells                    I                0
Highest angular momentum                   I                2
Largest degree of contraction              I                6
Shell types                                I   N=          66
           0          -1          -1          -1          -1          -2
           0          -1          -1          -1          -1          -2
           0          -1          -1          -1          -1          -2
           0          -1          -1          -1          -1          -2
           0          -1          -1          -1          -1          -2
           0          -1          -1          -1          -1          -2
           0           0           0           0           1           0
           0           0           0           1           0           0
           0           0           1           0           0           0
           0           1           0           0           0           0
           1           0           0           0           0           1
Number of primitives per shell             I   N=          66
           6           3           1           1           1           1
           6           3           1           1           1           1
           6           3           1           1           1           1
           6           3           1           1           1           1
           6           3           1           1           1           1
           6           3           1           1           1           1
           3           1           1           1           1           3
           1           1           1           1           3           1
           1           1           1           3           1           1
           1           1           3           1           1           1
           1           3           1           1           1           1
Shell to atom map                          I   N=          66
           1           1           1           1           1           1
           2           2           2           2           2           2
           3           3           3           3           3           3
           4           4           4           4           4           4
           5           5           5           5           5           5
           6           6           6           6           6           6
           7           7           7           7           7           8
           8           8           8           8           9           9
           9           9           9          10          10          10
          10          10          11          11          11          11
          11          12          12          12          12          12
Primitive exponents                        R   N=         120
  4.56324000E+03  6.82024000E+02  1.54973000E+02  4.44553000E+01  1.30290000E+01
  1.82773000E+00  2.09642000E+01  4.80331000E+00  1.45933000E+00  4.83456000E-01
  1.45585000E-01  4.38000000E-02  6.26000000E-01  4.56324000E+03  6.82024000E+02
  1.54973000E+02  4.44553000E+01  1.30290000E+01  1.82773000E+00  2.09642000E+01
  4.80331000E+00  1.45933000E+00  4.83456000E-01  1.45585000E-01  4.38000000E-02
  6.26000000E-01  4.56324000E+03  6.82024000E+02  1.54973000E+02  4.44553000E+01
  1.30290000E+01  1.82773000E+00  2.09642000E+01  4.80331000E+00  1.45933000E+00
  4.83456000E-01  1.45585000E-01  4.38000000E-02  6.26000000E-01  4.56324000E+03
  6.82024000E+02  1.54973000E+02  4.44553000E+01  1.30290000E+01  1.82773000E+00
  2.09642000E+01  4.80331000E+00  1.45933000E+00  4.83456000E-01  1.45585000E-01
  4.38000000E-02  6.26000000E-01  4.56324000E+03  6.82024000E+02  1.54973000E+02
  4.44553000E+01  1.30290000E+01  1.82773000E+00  2.09642000E+01  4.80331000E+00
  1.45933000E+00  4.83456000E-01  1.45585000E-01  4.38000000E-02  6.26000000E-01
  4.56324000E+03  6.82024000E+02  1.54973000E+02  4.44553000E+01  1.30290000E+01
  1.82773000E+00  2.09642000E+01  4.80331000E+00  1.45933000E+00  4.83456000E-01
  1.45585000E-01  4.38000000E-02  6.26000000E-01  3.38650000E+01  5.09479000E+00
  1.15879000E+00  3.25840000E-01  1.02741000E-01  3.60000000E-02  7.50000000E-01
  3.38650000E+01  5.09479000E+00  1.15879000E+00  3.25840000E-01  1.02741000E-01
  3.60000000E-02  7.50000000E-01  3.38650000E+01  5.09479000E+00  1.15879000E+00
  3.25840000E-01  1.02741000E-01  3.60000000E-02  7.50000000E-01  3.38650000E+01
  5.09479000E+00  1.15879000E+00  3.25840000E-01  1.02741000E-01  3.60000000E-02
  7.50000000E-01  3.38650000E+01  5.09479000E+00  1.15879000E+00  3.25840000E-01
  1.02741000E-01  3.60000000E-02  7.50000000E-01  3.38650000E+01  5.09479000E+00
  1.15879000E+00  3.25840000E-01  1.02741000E-01  3.60000000E-02  7.50000000E-01
Contraction coefficients                   R   N=         120
  1.96665025E-03  1.52306019E-02  7.61269097E-02  2.60801033E-01  6.16462078E-01
  2.21006028E-01  1.14660081E-01  9.19999648E-01 -3.03068213E-03  1.00000000E+00
  1.00000000E+00  1.00000000E+00  1.00000000E+00  1.96665025E-03  1.52306019E-02
  7.61269097E-02  2.60801033E-01  6.16462078E-01  2.21006028E-01  1.14660081E-01
  9.19999648E-01 -3.03068213E-03  1.00000000E+00  1.00000000E+00  1.00000000E+00
  1.00000000E+00  1.96665025E-03  1.52306019E-02  7.61269097E-02  2.60801033E-01
  6.16462078E-01  2.21006028E-01  1.14660081E-01  9.19999648E-01 -3.03068213E-03
  1.00000000E+00  1.00000000E+00  1.00000000E+00  1.00000000E+00  1.96665025E-03
  1.52306019E-02  7.61269097E-02  2.60801033E-01  6.16462078E-01  2.21006028E-01
  1.14660081E-01  9.19999648E-01 -3.03068213E-03  1.00000000E+00  1.00000000E+00
  1.00000000E+00  1.00000000E+00  1.96665025E-03  1.52306019E-02  7.61269097E-02
  2.60801033E-01  6.16462078E-01  2.21006028E-01  1.14660081E-01  9.19999648E-01
 -3.03068213E-03  1.00000000E+00  1.00000000E+00  1.00000000E+00  1.00000000E+00
  1.96665025E-03  1.52306019E-02  7.61269097E-02  2.60801033E-01  6.16462078E-01
  2.21006028E-01  1.14660081E-01  9.19999648E-01 -3.03068213E-03  1.00000000E+00
  1.00000000E+00  1.00000000E+00  1.00000000E+00  2.54938145E-02  1.90373109E-01
  8.52161486E-01  1.00000000E+00  1.00000000E+00  1.00000000E+00  1.00000000E+00
  2.54938145E-02  1.90373109E-01  8.52161486E-01  1.00000000E+00  1.00000000E+00
  1.00000000E+00  1.00000000E+00  2.54938145E-02  1.90373109E-01  8.52161486E-01
  1.00000000E+00  1.00000000E+00  1.00000000E+00  1.00000000E+00  2.54938145E-02
  1.90373109E-01  8.52161486E-01  1.00000000E+00  1.00000000E+00  1.00000000E+00
  1.00000000E+00  2.54938145E-02  1.90373109E-01  8.52161486E-01  1.00000000E+00
  1.00000000E+00  1.00000000E+00  1.00000000E+00  2.54938145E-02  1.90373109E-01
  8.52161486E-01  1.00000000E+00  1.00000000E+00  1.00000000E+00  1.00000000E+00
P(S=P) Contraction coefficients            R   N=         120
  0.00000000E+00  0.00000000E+00  0.00000000E+00  0.00000000E+00  0.00000000E+00
  0.00000000E+00  4.02486927E-02  2.37593957E-01  8.15853851E-01  1.00000000E+00
  1.00000000E+00  1.00000000E+00  0.00000000E+00  0.00000000E+00  0.00000000E+00
  0.00000000E+00  0.00000000E+00  0.00000000E+00  0.00000000E+00  4.02486927E-02
  2.37593957E-01  8.15853851E-01  1.00000000E+00  1.00000000E+00  1.00000000E+00
  0.00000000E+00  0.00000000E+00  0.00000000E+00  0.00000000E+00  0.00000000E+00
  0.00000000E+00  0.00000000E+00  4.02486927E-02  2.37593957E-01  8.15853851E-01
  1.00000000E+00  1.00000000E+00  1.00000000E+00  0.00000000E+00  0.00000000E+00
  0.00000000E+00  0.00000000E+00  0.00000000E+00  0.00000000E+00  0.00000000E+00
  4.02486927E-02  2.37593957E-01  8.15853851E-01  1.00000000E+00  1.00000000E+00
  1.00000000E+00  0.00000000E+00  0.00000000E+00  0.00000000E+00  0.00000000E+00
  0.00000000E+00  0.00000000E+00  0.00000000E+00  4.02486927E-02  2.37593957E-01
  8.15853851E-01  1.00000000E+00  1.00000000E+00  1.00000000E+00  0.00000000E+00
  0.00000000E+00  0.00000000E+00  0.00000000E+00  0.00000000E+00  0.00000000E+00
  0.00000000E+00  4.02486927E-02  2.37593957E-01  8.15853851E-01  1.00000000E+00
  1.00000000E+00  1.00000000E+00  0.00000000E+00  0.00000000E+00  0.00000000E+00
  0.00000000E+00  0.00000000E+00  0.00000000E+00  0.00000000E+00  0.00000000E+00
  0.00000000E+00  0.00000000E+00  0.00000000E+00  0.00000000E+00  0.00000000E+00
  0.00000000E+00  0.00000000E+00  0.00000000E+00  0.00000000E+00  0.00000000E+00
  0.00000000E+00  0.00000000E+00  0.00000000E+00  0.00000000E+00  0.00000000E+00
  0.00000000E+00  0.00000000E+00  0.00000000E+00  0.00000000E+00  0.00000000E+00
  0.00000000E+00  0.00000000E+00  0.00000000E+00  0.00000000E+00  0.00000000E+00
  0.00000000E+00  0.00000000E+00  0.00000000E+00  0.00000000E+00  0.00000000E+00
  0.00000000E+00  0.00000000E+00  0.00000000E+00  0.00000000E+00  0.00000000E+00
Coordinates of each shell                  R   N=         198
  1.14686723E-01  2.61444153E+00 -3.08236582E-32  1.14686723E-01  2.61444153E+00
 -3.08236582E-32  1.14686723E-01  2.61444153E+00 -3.08236582E-32  1.14686723E-01
  2.61444153E+00 -3.08236582E-32  1.14686723E-01  2.61444153E+00 -3.08236582E-32
  1.14686723E-01  2.61444153E+00 -3.08236582E-32 -1.14686723E-01  1.31589994E+00
  2.28654594E+00 -1.14686723E-01  1.31589994E+00  2.28654594E+00 -1.14686723E-01
  1.31589994E+00  2.28654594E+00 -1.14686723E-01  1.31589994E+00  2.28654594E+00
 -1.14686723E-01  1.31589994E+00  2.28654594E+00 -1.14686723E-01  1.31589994E+00
  2.28654594E+00  1.14686723E-01 -1.31589994E+00  2.28654594E+00  1.14686723E-01
 -1.31589994E+00  2.28654594E+00  1.14686723E-01 -1.31589994E+00  2.28654594E+00
  1.14686723E-01 -1.31589994E+00  2.28654594E+00  1.14686723E-01 -1.31589994E+00
  2.28654594E+00  1.14686723E-01 -1.31589994E+00  2.28654594E+00 -1.14686723E-01
 -2.61444153E+00  6.56482252E-32 -1.14686723E-01 -2.61444153E+00  6.56482252E-32
 -1.14686723E-01 -2.61444153E+00  6.56482252E-32 -1.14686723E-01 -2.61444153E+00
  6.56482252E-32 -1.14686723E-01 -2.61444153E+00  6.56482252E-32 -1.14686723E-01
 -2.61444153E+00  6.56482252E-32  1.14686723E-01 -1.31589994E+00 -2.28654594E+00
  1.14686723E-01 -1.31589994E+00 -2.28654594E+00  1.14686723E-01 -1.31589994E+00
 -2.28654594E+00  1.14686723E-01 -1.31589994E+00 -2.28654594E+00  1.14686723E-01
 -1.31589994E+00 -2.28654594E+00  1.14686723E-01 -1.31589994E+00 -2.28654594E+00
 -1.14686723E-01  1.31589994E+00 -2.28654594E+00 -1.14686723E-01  1.31589994E+00
 -2.28654594E+00 -1.14686723E-01  1.31589994E+00 -2.28654594E+00 -1.14686723E-01
  1.31589994E+00 -2.28654594E+00 -1.14686723E-01  1.31589994E+00 -2.28654594E+00
 -1.14686723E-01  1.31589994E+00 -2.28654594E+00  9.43785691E-02  4.66550837E+00
 -5.63645845E-32  9.43785691E-02  4.66550837E+00 -5.63645845E-32  9.43785691E-02
  4.66550837E+00 -5.63645845E-32  9.43785691E-02  4.66550837E+00 -5.63645845E-32
  9.43785691E-02  4.66550837E+00 -5.63645845E-32 -9.07129006E-02  2.35065463E+00
  4.05599857E+00 -9.07129006E-02  2.35065463E+00  4.05599857E+00 -9.07129006E-02
  2.35065463E+00  4.05599857E+00 -9.07129006E-02  2.35065463E+00  4.05599857E+00
 -9.07129006E-02  2.35065463E+00  4.05599857E+00  9.07129006E-02 -2.35065463E+00
  4.05599857E+00  9.07129006E-02 -2.35065463E+00  4.05599857E+00  9.07129006E-02
 -2.35065463E+00  4.05599857E+00  9.07129006E-02 -2.35065463E+00  4.05599857E+00
  9.07129006E-02 -2.35065463E+00  4.05599857E+00 -9.43785691E-02 -4.66550837E+00
  1.15790873E-31 -9.43785691E-02 -4.66550837E+00  1.15790873E-31 -9.43785691E-02
 -4.66550837E+00  1.15790873E-31 -9.43785691E-02 -4.66550837E+00  1.15790873E-31
 -9.43785691E-02 -4.66550837E+00  1.15790873E-31  9.07129006E-02 -2.35065463E+00
 -4.05599857E+00  9.07129006E-02 -2.35065463E+00 -4.05599857E+00  9.07129006E-02
 -2.35065463E+00 -4.05599857E+00  9.07129006E-02 -2.35065463E+00 -4.05599857E+00
  9.07129006E-02 -2.35065463E+00 -4.05599857E+00 -9.07129006E-02  2.35065463E+00
 -4.05599857E+00 -9.07129006E-02  2.35065463E+00 -4.05599857E+00 -9.07129006E-02
  2.35065463E+00 -4.05599857E+00 -9.07129006E-02  2.35065463E+00 -4.05599857E+00
 -9.07129006E-02  2.35065463E+00 -4.05599857E+00
Constraint Structure                       R   N=          36
  1.14686723E-01  2.61444153E+00 -3.08236582E-32 -1.14686723E-01  1.31589994E+00
  2.28654594E+00  1.14686723E-01 -1.31589994E+00  2.28654594E+00 -1.14686723E-01
 -2.61444153E+00  6.56482252E-32  1.14686723E-01 -1.31589994E+00 -2.28654594E+00
 -1.14686723E-01  1.31589994E+00 -2.28654594E+00  9.43785691E-02  4.66550837E+00
 -5.63645845E-32 -9.07129006E-02  2.35065463E+00  4.05599857E+00  9.07129006E-02
 -2.35065463E+00  4.05599857E+00 -9.43785691E-02 -4.66550837E+00  1.15790873E-31
  9.07129006E-02 -2.35065463E+00 -4.05599857E+00 -9.07129006E-02  2.35065463E+00
 -4.05599857E+00
Num ILSW                                   I              100
ILSW                                       I   N=         100
           0           0           0           0           2           0
           0           0           0           0           0          -1
           0           0           0           0           0           0
           0           0           0           0           0           0
           1           0           0           0           0           0
           0           0      100000           0          -1           0
           0           0           0           0           0           0
           0           0           0           1           0           0
           0           0           1           0           0           0
           0           0           4          40           0           0
           0           0           0           0           0           0
           0           0           0           0           0           0
           0           0           0           0           0           0
           0           0           0           0           0           0
           0           0           0           0           0           0
           0           0           0           0           0           0
           0           0           0           0
Num RLSW                                   I               40
RLSW                                       R   N=          40
  1.00000000E+00  1.00000000E+00  1.00000000E+00  1.00000000E+00  1.00000000E+00
  0.00000000E+00  0.00000000E+00  1.00000000E+00  0.00000000E+00  0.00000000E+00
  0.00000000E+00  0.00000000E+00  1.00000000E+00  0.00000000E+00  0.00000000E+00
  0.00000000E+00  0.00000000E+00  1.00000000E+00  0.00000000E+00  0.00000000E+00
  0.00000000E+00  0.00000000E+00  1.00000000E+00  0.00000000E+00  0.00000000E+00
  0.00000000E+00  0.00000000E+00  1.00000000E+00  0.00000000E+00  0.00000000E+00
  0.00000000E+00  0.00000000E+00  0.00000000E+00  0.00000000E+00  0.00000000E+00
  0.00000000E+00  0.00000000E+00  0.00000000E+00  1.00000000E+00  1.00000000E+00
MxBond                                     I                3
NBond                                      I   N=          12
           3           3           3           3           3           3
           1           1           1           1           1           1
IBond                                      I   N=          36
           2           6           7           1           3           8
           2           4           9           3           5          10
           4           6          11           1           5          12
           1           0           0           2           0           0
           3           0           0           4           0           0
           5           0           0           6           0           0
RBond                                      R   N=          36
  1.50000000E+00  1.50000000E+00  1.00000000E+00  1.50000000E+00  1.50000000E+00
  1.00000000E+00  1.50000000E+00  1.50000000E+00  1.00000000E+00  1.50000000E+00
  1.50000000E+00  1.00000000E+00  1.50000000E+00  1.50000000E+00  1.00000000E+00
  1.50000000E+00  1.50000000E+00  1.00000000E+00  1.00000000E+00  0.00000000E+00
  0.00000000E+00  1.00000000E+00  0.00000000E+00  0.00000000E+00  1.00000000E+00
  0.00000000E+00  0.00000000E+00  1.00000000E+00  0.00000000E+00  0.00000000E+00
  1.00000000E+00  0.00000000E+00  0.00000000E+00  1.00000000E+00  0.00000000E+00
  0.00000000E+00
Virial Ratio                               R      2.001296726926840E+00
SCF Energy                                 R     -2.307439008846033E+02
MP2 Energy                                 R     -2.315765215748454E+02
Total Energy                               R     -2.315765215748454E+02
Post-SCF wavefunction norm                 R      1.145041940414151E+00
RMS Density                                R      7.368149374635444E-09
External E-field                           R   N=          35
  0.00000000E+00  0.00000000E+00  0.00000000E+00  0.00000000E+00  0.00000000E+00
  0.00000000E+00  0.00000000E+00  0.00000000E+00  0.00000000E+00  0.00000000E+00
  0.00000000E+00  0.00000000E+00  0.00000000E+00  0.00000000E+00  0.00000000E+00
  0.00000000E+00  0.00000000E+00  0.00000000E+00  0.00000000E+00  0.00000000E+00
  0.00000000E+00  0.00000000E+00  0.00000000E+00  0.00000000E+00  0.00000000E+00
  0.00000000E+00  0.00000000E+00  0.00000000E+00  0.00000000E+00  0.00000000E+00
  0.00000000E+00  0.00000000E+00  0.00000000E+00  0.00000000E+00  0.00000000E+00
IOpCl                                      I                0
IROHF                                      I                0
Alpha Orbital Energies                     R   N=         174
 -1.12399166E+01 -1.12395278E+01 -1.12391463E+01 -1.12383192E+01 -1.12378201E+01
 -1.12374384E+01 -1.15248027E+00 -1.01650984E+00 -1.01527897E+00 -8.24861207E-01
 -8.23173026E-01 -7.10262139E-01 -6.44784038E-01 -6.16868164E-01 -5.90368219E-01
 -5.87075531E-01 -5.01752223E-01 -4.97407478E-01 -4.93937505E-01 -3.35586900E-01
 -3.34841680E-01  4.20816564E-02  4.91034627E-02  4.91905069E-02  6.67117396E-02
  6.68137286E-02  9.87903506E-02  1.06487421E-01  1.07573540E-01  1.10863894E-01
  1.39743048E-01  1.50797783E-01  1.51065622E-01  1.62966850E-01  1.82091659E-01
  1.82562837E-01  1.84519102E-01  1.84594056E-01  1.91738206E-01  2.12784298E-01
  2.12979471E-01  2.13024118E-01  2.14301596E-01  2.14874842E-01  2.27435491E-01
  2.27853125E-01  2.30170362E-01  2.33405724E-01  2.51141787E-01  2.51254171E-01
  2.57511809E-01  2.89329000E-01  2.89610596E-01  3.31642614E-01  3.51840495E-01
  4.05440121E-01  4.07241135E-01  4.08052080E-01  4.27341617E-01  4.27572526E-01
  4.96196162E-01  4.96357463E-01  5.09571237E-01  5.11078295E-01  5.77044316E-01
  6.04830681E-01  6.12501026E-01  6.85723902E-01  7.27288628E-01  7.36114007E-01
  7.36788414E-01  7.45533622E-01  7.46094437E-01  7.63035920E-01  7.63327078E-01
  7.77853251E-01  8.14901558E-01  8.15226932E-01  8.15497173E-01  8.82901662E-01
  9.34685480E-01  9.36282016E-01  9.47960369E-01  9.50435194E-01  9.75208539E-01
  1.00673462E+00  1.00684770E+00  1.03569252E+00  1.03605942E+00  1.03684954E+00
  1.07527741E+00  1.11778994E+00  1.11882330E+00  1.13179995E+00  1.19572851E+00
  1.19871903E+00  1.30551370E+00  1.35014373E+00  1.35261460E+00  1.39160979E+00
  1.39399416E+00  1.54975942E+00  1.58496590E+00  1.71222080E+00  1.78309900E+00
  1.78980390E+00  1.80346763E+00  1.82740446E+00  1.84196180E+00  1.84231593E+00
  1.90310061E+00  1.90699888E+00  1.93382669E+00  1.93872407E+00  1.99534126E+00
  2.05052548E+00  2.05280383E+00  2.10142155E+00  2.10662529E+00  2.11220359E+00
  2.12894965E+00  2.19857129E+00  2.20488642E+00  2.27118790E+00  2.27551083E+00
  2.29814068E+00  2.36539511E+00  2.36771934E+00  2.37037008E+00  2.37205797E+00
  2.60975055E+00  2.61109682E+00  2.70306452E+00  2.75474753E+00  2.75653184E+00
  2.77760916E+00  2.81902844E+00  2.82274452E+00  2.95373620E+00  2.96022911E+00
  2.99345218E+00  2.99657895E+00  3.03098639E+00  3.03178418E+00  3.03572315E+00
  3.03664689E+00  3.09936079E+00  3.18217942E+00  3.18910573E+00  3.19134068E+00
  3.30819664E+00  3.30975615E+00  3.33311728E+00  3.33757905E+00  3.47269277E+00
  3.54028029E+00  3.77016387E+00  3.77044398E+00  3.89958407E+00  3.89988954E+00
  3.92615996E+00  3.95727655E+00  4.40902198E+00  4.41224501E+00  4.44317525E+00
  4.59439667E+00  4.59861748E+00  5.09636108E+00  2.47527550E+01  2.51252093E+01
  2.51269239E+01  2.52530375E+01  2.52566337E+01  2.53024242E+01
Alpha MO coefficients                      R   N=       30276
  1.77892343E-01  1.47273549E-01 -2.50720857E-05 -4.52897107E-05  0.00000000E+00
  1.65516675E-03 -2.42632380E-05 -1.81269607E-04  0.00000000E+00 -3.43855343E-04
  1.12397829E-04 -4.72654531E-06  0.00000000E+00 -6.80549630E-04 -4.59218697E-04
  3.82380610E-05  0.00000000E+00  9.13342231E-05  0.00000000E+00  0.00000000E+00
 -3.09212685E-05  2.84379080E-06  2.51929053E-01  2.08600885E-01  3.32179471E-05
 -2.69767398E-05 -6.96435102E-07  2.17135876E-03  2.78453114E-05 -1.16561647E-04
 -1.65209609E-04 -4.27988743E-04 -1.11440345E-04  2.34735559E-05  3.16812435E-05
  2.00083498E-04  4.70163073E-04 -1.50299863E-04 -2.84614197E-04  3.47851082E-05
 -6.34566697E-06 -5.31394548E-05 -1.37077787E-04 -1.69145360E-06  2.51929053E-01
  2.08600885E-01 -3.32179471E-05  2.69767398E-05 -6.96435102E-07  2.17135876E-03
 -2.78453114E-05  1.16561647E-04 -1.65209609E-04 -4.27988743E-04  1.11440345E-04
 -2.34735559E-05  3.16812435E-05  2.00083498E-04 -4.70163073E-04  1.50299863E-04
 -2.84614197E-04  3.47851082E-05  6.34566697E-06  5.31394548E-05 -1.37077787E-04
 -1.69145360E-06  1.77892343E-01  1.47273549E-01  2.50720857E-05  4.52897107E-05
  0.00000000E+00  1.65516675E-03  2.42632380E-05  1.81269607E-04  0.00000000E+00
 -3.43855343E-04 -1.12397829E-04  4.72654531E-06  0.00000000E+00 -6.80549630E-04
  4.59218697E-04 -3.82380610E-05  0.00000000E+00  9.13342231E-05  0.00000000E+00
  0.00000000E+00 -3.09212685E-05  2.84379080E-06  2.51929053E-01  2.08600885E-01
 -3.32179471E-05  2.69767398E-05  6.96435102E-07  2.17135876E-03 -2.78453114E-05
  1.16561647E-04  1.65209609E-04 -4.27988743E-04  1.11440345E-04 -2.34735559E-05
 -3.16812435E-05  2.00083498E-04 -4.70163073E-04  1.50299863E-04  2.84614197E-04
  3.47851082E-05 -6.34566697E-06 -5.31394548E-05 -1.37077787E-04 -1.69145360E-06
  2.51929053E-01  2.08600885E-01  3.32179471E-05 -2.69767398E-05  6.96435102E-07
  2.17135876E-03  2.78453114E-05 -1.16561647E-04  1.65209609E-04 -4.27988743E-04
 -1.11440345E-04  2.34735559E-05 -3.16812435E-05  2.00083498E-04  4.70163073E-04
 -1.50299863E-04  2.84614197E-04  3.47851082E-05  6.34566697E-06  5.31394548E-05
 -1.37077787E-04 -1.69145360E-06  1.36231073E-04  2.75696906E-05  1.50514375E-04
  2.00848243E-05 -6.81577139E-06 -3.75531896E-05  0.00000000E+00  1.90139553E-04
 -4.96940203E-06  2.09328136E-04  1.53805644E-04  7.52164487E-06 -1.95427896E-05
 -2.95613019E-05  1.90139553E-04 -4.96940203E-06  2.09328136E-04  1.53805644E-04
 -7.52164487E-06  1.95427896E-05 -2.95613019E-05  1.36231073E-04  2.75696906E-05
  1.50514375E-04  2.00848243E-05  6.81577139E-06  3.75531896E-05  0.00000000E+00
  1.90139553E-04 -4.96940203E-06  2.09328136E-04  1.53805644E-04 -7.52164487E-06
  1.95427896E-05  2.95613019E-05  1.90139553E-04 -4.96940203E-06  2.09328136E-04
  1.53805644E-04  7.52164487E-06 -1.95427896E-05  2.95613019E-05  0.00000000E+00
  0.00000000E+00  0.00000000E+00  0.00000000E+00  1.85481455E-04  0.00000000E+00
  0.00000000E+00  0.00000000E+00  1.46638062E-04  0.00000000E+00  0.00000000E+00
  0.00000000E+00 -1.37784746E-04  0.00000000E+00  0.00000000E+00  0.00000000E+00
  6.61992306E-04  0.00000000E+00  8.01159265E-06 -1.05090285E-04  0.00000000E+00
  0.00000000E+00  2.81621950E-01  2.33213507E-01  4.11672894E-05 -7.79114789E-05
  4.53623308E-05  2.29335937E-03  5.97712603E-06 -1.26783475E-04 -7.25661642E-05
 -3.60965716E-04  5.99484819E-06  5.10579285E-05 -4.75518168E-05 -5.08164068E-04
 -7.76316424E-05 -7.68971140E-04 -6.66360642E-04  1.14832161E-05 -9.23769225E-06
 -3.87820768E-05 -1.84986608E-04 -6.17813937E-07  2.81621950E-01  2.33213507E-01
 -4.11672894E-05  7.79114789E-05  4.53623308E-05  2.29335937E-03 -5.97712603E-06
  1.26783475E-04 -7.25661642E-05 -3.60965716E-04 -5.99484819E-06 -5.10579285E-05
 -4.75518168E-05 -5.08164068E-04  7.76316424E-05  7.68971140E-04 -6.66360642E-04
  1.14832161E-05  9.23769225E-06  3.87820768E-05 -1.84986608E-04 -6.17813937E-07
  0.00000000E+00  0.00000000E+00  0.00000000E+00  0.00000000E+00  1.85481455E-04
  0.00000000E+00  0.00000000E+00  0.00000000E+00  1.46638062E-04  0.00000000E+00
  0.00000000E+00  0.00000000E+00 -1.37784746E-04  0.00000000E+00  0.00000000E+00
  0.00000000E+00  6.61992306E-04  0.00000000E+00 -8.01159265E-06  1.05090285E-04
  0.00000000E+00  0.00000000E+00 -2.81621950E-01 -2.33213507E-01  4.11672894E-05
 -7.79114789E-05  4.53623308E-05 -2.29335937E-03  5.97712603E-06 -1.26783475E-04
 -7.25661642E-05  3.60965716E-04  5.99484819E-06  5.10579285E-05 -4.75518168E-05
  5.08164068E-04 -7.76316424E-05 -7.68971140E-04 -6.66360642E-04 -1.14832161E-05
  9.23769225E-06  3.87820768E-05  1.84986608E-04  6.17813937E-07 -2.81621950E-01
 -2.33213507E-01 -4.11672894E-05  7.79114789E-05  4.53623308E-05 -2.29335937E-03
 -5.97712603E-06  1.26783475E-04 -7.25661642E-05  3.60965716E-04 -5.99484819E-06