 Entering Gaussian System, Link 0=g09
 Initial command:
 /apps/software//g09/l1.exe /scratch/itamar/2431.cluster.abaxnet/Gau-8814.inp -scrdir=/scratch/itamar/2431.cluster.abaxnet/
 Entering Link 1 = /apps/software//g09/l1.exe PID=      8815.
  
 Copyright (c) 1988,1990,1992,1993,1995,1998,2003,2009, Gaussian, Inc.
                  All Rights Reserved.
  
 This is part of the Gaussian(R) 09 program.  It is based on
 the Gaussian(R) 03 system (copyright 2003, Gaussian, Inc.),
 the Gaussian(R) 98 system (copyright 1998, Gaussian, Inc.),
 the Gaussian(R) 94 system (copyright 1995, Gaussian, Inc.),
 the Gaussian 92(TM) system (copyright 1992, Gaussian, Inc.),
 the Gaussian 90(TM) system (copyright 1990, Gaussian, Inc.),
 the Gaussian 88(TM) system (copyright 1988, Gaussian, Inc.),
 the Gaussian 86(TM) system (copyright 1986, Carnegie Mellon
 University), and the Gaussian 82(TM) system (copyright 1983,
 Carnegie Mellon University). Gaussian is a federally registered
 trademark of Gaussian, Inc.
  
 This software contains proprietary and confidential information,
 including trade secrets, belonging to Gaussian, Inc.
  
 This software is provided under written license and may be
 used, copied, transmitted, or stored only in accord with that
 written license.
  
 The following legend is applicable only to US Government
 contracts under FAR:
  
                    RESTRICTED RIGHTS LEGEND
  
 Use, reproduction and disclosure by the US Government is
 subject to restrictions as set forth in subparagraphs (a)
 and (c) of the Commercial Computer Software - Restricted
 Rights clause in FAR 52.227-19.
  
 Gaussian, Inc.
 340 Quinnipiac St., Bldg. 40, Wallingford CT 06492
  
  
 ---------------------------------------------------------------
 Warning -- This program may not be used in any manner that
 competes with the business of Gaussian, Inc. or will provide
 assistance to any competitor of Gaussian, Inc.  The licensee
 of this program is prohibited from giving any competitor of
 Gaussian, Inc. access to this program.  By using this program,
 the user acknowledges that Gaussian, Inc. is engaged in the
 business of creating and licensing software in the field of
 computational chemistry and represents and warrants to the
 licensee that it is not a competitor of Gaussian, Inc. and that
 it will not use this program in any manner prohibited above.
 ---------------------------------------------------------------
  

 Cite this work as:
 Gaussian 09, Revision A.02,
 M. J. Frisch, G. W. Trucks, H. B. Schlegel, G. E. Scuseria, 
 M. A. Robb, J. R. Cheeseman, G. Scalmani, V. Barone, B. Mennucci, 
 G. A. Petersson, H. Nakatsuji, M. Caricato, X. Li, H. P. Hratchian, 
 A. F. Izmaylov, J. Bloino, G. Zheng, J. L. Sonnenberg, M. Hada, 
 M. Ehara, K. Toyota, R. Fukuda, J. Hasegawa, M. Ishida, T. Nakajima, 
 Y. Honda, O. Kitao, H. Nakai, T. Vreven, J. A. Montgomery, Jr., 
 J. E. Peralta, F. Ogliaro, M. Bearpark, J. J. Heyd, E. Brothers, 
 K. N. Kudin, V. N. Staroverov, R. Kobayashi, J. Normand, 
 K. Raghavachari, A. Rendell, J. C. Burant, S. S. Iyengar, J. Tomasi, 
 M. Cossi, N. Rega, J. M. Millam, M. Klene, J. E. Knox, J. B. Cross, 
 V. Bakken, C. Adamo, J. Jaramillo, R. Gomperts, R. E. Stratmann, 
 O. Yazyev, A. J. Austin, R. Cammi, C. Pomelli, J. W. Ochterski, 
 R. L. Martin, K. Morokuma, V. G. Zakrzewski, G. A. Voth, 
 P. Salvador, J. J. Dannenberg, S. Dapprich, A. D. Daniels, 
 O. Farkas, J. B. Foresman, J. V. Ortiz, J. Cioslowski, 
 and D. J. Fox, Gaussian, Inc., Wallingford CT, 2009.
 
 ******************************************
 Gaussian 09:  EM64L-G09RevA.02 11-Jun-2009
                 3-Dec-2021 
 ******************************************
 %Mem=3800MB
 %NProcShared=6
 Will use up to    6 processors via shared memory.
 %chk=/home/itamar/Aromaticity-test-set/T5-Pyramid/20/pyramid-20.chk
 -----------------------------
 #P MP2/6-311++G** DENSITY=MP2
 -----------------------------
 1/30=1,38=1/1;
 2/12=2,17=6,18=5,40=1/2;
 3/5=4,6=6,7=1111,11=9,16=1,25=1,30=1,71=1/1,2,3;
 4//1;
 5/5=2,38=5/2;
 8/6=4,10=2/1;
 9/15=1,16=-3/6;
 10/5=1,13=10/2;
 6/7=2,8=2,9=2,10=2,22=2/1;
 99/5=1,9=1/99;
 Leave Link    1 at Fri Dec  3 12:17:13 2021, MaxMem=  498073600 cpu:       0.2
 (Enter /apps/software//g09/l101.exe)
 ----------
 Pyramid-20
 ----------
 Symbolic Z-matrix:
 Charge =  0 Multiplicity = 1
 6                     1.21016  -0.69871  -0.05305 
 6                     1.21016   0.69871  -0.05305 
 6                     0.        1.39748  -0.05301 
 6                    -1.21016   0.69871  -0.05305 
 6                    -1.21016  -0.69871  -0.05305 
 6                     0.       -1.39748  -0.05301 
 1                     2.09356  -1.20863   0.31821 
 1                     2.09356   1.20863   0.31821 
 1                     0.        2.41748   0.31824 
 1                    -2.09356   1.20863   0.31821 
 1                    -2.09356  -1.20863   0.31821 
 1                     0.       -2.41748   0.31824 
 
 NAtoms=     12 NQM=     12 NQMF=      0 NMic=      0 NMicF=      0 NTot=     12.
                    Isotopes and Nuclear Properties:
 (Nuclear quadrupole moments (NQMom) in fm**2, nuclear magnetic moments (NMagM)
  in nuclear magnetons)

  Atom         1           2           3           4           5           6           7           8           9          10
 IAtWgt=          12          12          12          12          12          12           1           1           1           1
 AtmWgt=  12.0000000  12.0000000  12.0000000  12.0000000  12.0000000  12.0000000   1.0078250   1.0078250   1.0078250   1.0078250
 NucSpn=           0           0           0           0           0           0           1           1           1           1
 AtZEff=   0.0000000   0.0000000   0.0000000   0.0000000   0.0000000   0.0000000   0.0000000   0.0000000   0.0000000   0.0000000
 NQMom=    0.0000000   0.0000000   0.0000000   0.0000000   0.0000000   0.0000000   0.0000000   0.0000000   0.0000000   0.0000000
 NMagM=    0.0000000   0.0000000   0.0000000   0.0000000   0.0000000   0.0000000   2.7928460   2.7928460   2.7928460   2.7928460

  Atom        11          12
 IAtWgt=           1           1
 AtmWgt=   1.0078250   1.0078250
 NucSpn=           1           1
 AtZEff=   0.0000000   0.0000000
 NQMom=    0.0000000   0.0000000
 NMagM=    2.7928460   2.7928460
 Leave Link  101 at Fri Dec  3 12:17:13 2021, MaxMem=  498073600 cpu:       0.2
 (Enter /apps/software//g09/l202.exe)
                          Input orientation:                          
 ---------------------------------------------------------------------
 Center     Atomic      Atomic             Coordinates (Angstroms)
 Number     Number       Type             X           Y           Z
 ---------------------------------------------------------------------
      1          6           0        1.210156   -0.698711   -0.053047
      2          6           0        1.210156    0.698711   -0.053047
      3          6           0        0.000000    1.397479   -0.053014
      4          6           0       -1.210156    0.698711   -0.053047
      5          6           0       -1.210156   -0.698711   -0.053047
      6          6           0        0.000000   -1.397479   -0.053014
      7          1           0        2.093563   -1.208626    0.318206
      8          1           0        2.093563    1.208625    0.318207
      9          1           0        0.000000    2.417483    0.318237
     10          1           0       -2.093563    1.208626    0.318206
     11          1           0       -2.093563   -1.208625    0.318207
     12          1           0        0.000000   -2.417483    0.318237
 ---------------------------------------------------------------------
                    Distance matrix (angstroms):
                    1          2          3          4          5
     1  C    0.000000
     2  C    1.397422   0.000000
     3  C    2.420432   1.397410   0.000000
     4  C    2.794763   2.420312   1.397410   0.000000
     5  C    2.420312   2.794763   2.420432   1.397422   0.000000
     6  C    1.397410   2.420432   2.794958   2.420432   1.397410
     7  H    1.085472   2.134519   3.363420   3.832796   3.363391
     8  H    2.134518   1.085472   2.134591   3.363391   3.832795
     9  H    3.363480   2.134598   1.085466   2.134598   3.363480
    10  H    3.832796   3.363391   2.134590   1.085472   2.134519
    11  H    3.363391   3.832795   3.363419   2.134518   1.085472
    12  H    2.134598   3.363480   3.832983   3.363480   2.134598
                    6          7          8          9         10
     6  C    0.000000
     7  H    2.134590   0.000000
     8  H    3.363419   2.417251   0.000000
     9  H    3.832983   4.187084   2.417508   0.000000
    10  H    3.363420   4.834783   4.187126   2.417507   0.000000
    11  H    2.134591   4.187126   4.834782   4.187083   2.417251
    12  H    1.085466   2.417507   4.187083   4.834966   4.187084
                   11         12
    11  H    0.000000
    12  H    2.417508   0.000000
 Stoichiometry    C6H6
 Framework group  C2V[SGV(C2H2),X(C4H4)]
 Deg. of freedom     9
 Full point group                 C2V     NOp   4
 Largest Abelian subgroup         C2V     NOp   4
 Largest concise Abelian subgroup C2V     NOp   4
                         Standard orientation:                         
 ---------------------------------------------------------------------
 Center     Atomic      Atomic             Coordinates (Angstroms)
 Number     Number       Type             X           Y           Z
 ---------------------------------------------------------------------
      1          6           0       -1.210156    0.698711   -0.053047
      2          6           0       -1.210156   -0.698711   -0.053047
      3          6           0        0.000000   -1.397479   -0.053014
      4          6           0        1.210156   -0.698711   -0.053047
      5          6           0        1.210156    0.698711   -0.053047
      6          6           0        0.000000    1.397479   -0.053014
      7          1           0       -2.093563    1.208626    0.318206
      8          1           0       -2.093563   -1.208626    0.318206
      9          1           0        0.000000   -2.417483    0.318237
     10          1           0        2.093563   -1.208626    0.318206
     11          1           0        2.093563    1.208626    0.318206
     12          1           0        0.000000    2.417483    0.318237
 ---------------------------------------------------------------------
 Rotational constants (GHZ):      5.6955022      5.6949370      2.8724986
 Leave Link  202 at Fri Dec  3 12:17:13 2021, MaxMem=  498073600 cpu:       0.0
 (Enter /apps/software//g09/l301.exe)
 Standard basis: 6-311++G(d,p) (5D, 7F)
 Ernie: Thresh=  0.10000D-02 Tol=  0.10000D-05 Strict=F.
 There are    51 symmetry adapted basis functions of A1  symmetry.
 There are    36 symmetry adapted basis functions of A2  symmetry.
 There are    36 symmetry adapted basis functions of B1  symmetry.
 There are    51 symmetry adapted basis functions of B2  symmetry.
 Integral buffers will be    131072 words long.
 Raffenetti 1 integral format.
 Two-electron integral symmetry is turned on.
   174 basis functions,   270 primitive gaussians,   180 cartesian basis functions
    21 alpha electrons       21 beta electrons
       nuclear repulsion energy       203.5671995239 Hartrees.
 IExCor=    0 DFT=F Ex=HF Corr=None ExCW=0 ScaHFX=  1.000000
 ScaDFX=  1.000000  1.000000  1.000000  1.000000 ScalE2=  1.000000  1.000000
 IRadAn=      0 IRanWt=     -1 IRanGd=            0 ICorTp=0
 NAtoms=   12 NActive=   12 NUniq=    4 SFac= 3.00D+00 NAtFMM=   80 NAOKFM=F Big=F
 Leave Link  301 at Fri Dec  3 12:17:13 2021, MaxMem=  498073600 cpu:       0.2
 (Enter /apps/software//g09/l302.exe)
 NPDir=0 NMtPBC=     1 NCelOv=     1 NCel=       1 NClECP=     1 NCelD=      1
         NCelK=      1 NCelE2=     1 NClLst=     1 CellRange=     0.0.
 One-electron integrals computed using PRISM.
 One-electron integral symmetry used in STVInt
 NBasis=   174 RedAO= T  NBF=    51    36    36    51
 NBsUse=   174 1.00D-06 NBFU=    51    36    36    51
 Leave Link  302 at Fri Dec  3 12:17:13 2021, MaxMem=  498073600 cpu:       1.3
 (Enter /apps/software//g09/l303.exe)
 DipDrv:  MaxL=1.
 Leave Link  303 at Fri Dec  3 12:17:14 2021, MaxMem=  498073600 cpu:       0.3
 (Enter /apps/software//g09/l401.exe)
 Harris functional with IExCor=  205 diagonalized for initial guess.
 ExpMin= 3.60D-02 ExpMax= 4.56D+03 ExpMxC= 6.82D+02 IAcc=3 IRadAn=         0 AccDes= 0.00D+00
 HarFok:  IExCor=  205 AccDes= 0.00D+00 IRadAn=         0 IDoV= 1
 ScaDFX=  1.000000  1.000000  1.000000  1.000000
 FoFCou: FMM=F IPFlag=           0 FMFlag=      100000 FMFlg1=           0
         NFxFlg=           0 DoJE=T BraDBF=F KetDBF=T FulRan=T
         Omega=  0.000000  0.000000  1.000000  0.000000  0.000000 ICntrl=     500 IOpCl=  0
         NMat0=    1 NMatS0=    1 NMatT0=    0 NMatD0=    1 NMtDS0=    0 NMtDT0=    0
         I1Cent=           4 NGrid=           0.
 Petite list used in FoFCou.
 Harris En= -231.127644352392    
 Initial guess orbital symmetries:
       Occupied  (A1) (B2) (B1) (A1) (A2) (B2) (A1) (B2) (B1) (A1)
                 (A2) (A1) (B1) (B2) (B2) (B1) (A1) (A1) (A2) (B2)
                 (B1)
       Virtual   (A2) (A1) (A1) (B2) (B1) (B2) (A1) (A2) (A1) (A1)
                 (B2) (B1) (B2) (B1) (A1) (A2) (A1) (B1) (B2) (A1)
                 (A2) (B1) (B2) (A1) (B1) (B2) (A2) (A1) (B2) (B2)
                 (A2) (A1) (A1) (A2) (B1) (B2) (B1) (B2) (B2) (A2)
                 (A1) (A2) (B2) (B1) (A1) (A2) (B2) (A1) (B2) (B1)
                 (A1) (B1) (B2) (A1) (A2) (A2) (A1) (B2) (B2) (B1)
                 (A2) (A1) (A1) (B1) (B2) (A2) (A1) (B2) (B1) (B2)
                 (A2) (A1) (A2) (B1) (A1) (B2) (B2) (B2) (B1) (A1)
                 (A2) (A1) (B1) (B2) (B1) (A1) (A2) (A1) (B2) (B1)
                 (A2) (A1) (B2) (B2) (B1) (A1) (A2) (A1) (A2) (B1)
                 (B2) (B1) (A2) (A1) (B2) (B2) (B1) (A2) (A1) (B2)
                 (A1) (A2) (A2) (A1) (B2) (B1) (B1) (B2) (B2) (A1)
                 (A1) (A2) (B1) (B2) (A1) (B1) (B2) (B2) (A2) (A1)
                 (A2) (A2) (A1) (B1) (B2) (A1) (A2) (A1) (B1) (B2)
                 (B2) (A2) (A1) (B1) (B2) (B2) (A2) (A1) (B2) (B1)
                 (A2) (A1) (B2)
 The electronic state of the initial guess is 1-A1.
 Leave Link  401 at Fri Dec  3 12:17:14 2021, MaxMem=  498073600 cpu:       2.3
 (Enter /apps/software//g09/l502.exe)
 Closed shell SCF:
 Requested convergence on RMS density matrix=1.00D-08 within 128 cycles.
 Requested convergence on MAX density matrix=1.00D-06.
 Requested convergence on             energy=1.00D-06.
 No special actions if energy rises.
 Using DIIS extrapolation, IDIIS=  1040.
 Integral symmetry usage will be decided dynamically.
 Keep R1 ints in memory in canonical form, NReq=135773479.
 IEnd=      118490 IEndB=      118490 NGot=   498073600 MDV=   365314108
 LenX=   365314108 LenY=   365281267
 Symmetry not used in FoFDir.
 MinBra= 0 MaxBra= 2 Meth= 1.
 IRaf=       0 NMat=   1 IRICut=       1 DoRegI=T DoRafI=F ISym2E= 0 JSym2E=0.

 Cycle   1  Pass 1  IDiag  1:
 E= -230.423351302395    
 DIIS: error= 6.13D-02 at cycle   1 NSaved=   1.
 NSaved= 1 IEnMin= 1 EnMin= -230.423351302395     IErMin= 1 ErrMin= 6.13D-02
 ErrMax= 6.13D-02 EMaxC= 1.00D-01 BMatC= 5.16D-01 BMatP= 5.16D-01
 IDIUse=3 WtCom= 3.87D-01 WtEn= 6.13D-01
 Coeff-Com:  0.100D+01
 Coeff-En:   0.100D+01
 Coeff:      0.100D+01
 Gap=     0.333 Goal=   None    Shift=    0.000
 GapD=    0.333 DampG=1.000 DampE=0.500 DampFc=0.5000 IDamp=-1.
 Damping current iteration by 5.00D-01
 RMSDP=7.77D-03 MaxDP=2.11D-01              OVMax= 1.61D-01

 Cycle   2  Pass 1  IDiag  1:
 E= -230.582340550612     Delta-E=       -0.158989248217 Rises=F Damp=T
 DIIS: error= 3.21D-02 at cycle   2 NSaved=   2.
 NSaved= 2 IEnMin= 2 EnMin= -230.582340550612     IErMin= 2 ErrMin= 3.21D-02
 ErrMax= 3.21D-02 EMaxC= 1.00D-01 BMatC= 1.10D-01 BMatP= 5.16D-01
 IDIUse=3 WtCom= 6.79D-01 WtEn= 3.21D-01
 Coeff-Com: -0.683D+00 0.168D+01
 Coeff-En:   0.000D+00 0.100D+01
 Coeff:     -0.464D+00 0.146D+01
 Gap=     0.389 Goal=   None    Shift=    0.000
 RMSDP=1.75D-03 MaxDP=2.64D-02 DE=-1.59D-01 OVMax= 5.12D-02

 Cycle   3  Pass 1  IDiag  1:
 E= -230.724569299959     Delta-E=       -0.142228749347 Rises=F Damp=F
 DIIS: error= 3.41D-03 at cycle   3 NSaved=   3.
 NSaved= 3 IEnMin= 3 EnMin= -230.724569299959     IErMin= 3 ErrMin= 3.41D-03
 ErrMax= 3.41D-03 EMaxC= 1.00D-01 BMatC= 1.20D-03 BMatP= 1.10D-01
 IDIUse=3 WtCom= 9.66D-01 WtEn= 3.41D-02
 Coeff-Com: -0.919D-01 0.146D+00 0.946D+00
 Coeff-En:   0.000D+00 0.000D+00 0.100D+01
 Coeff:     -0.887D-01 0.141D+00 0.948D+00
 Gap=     0.380 Goal=   None    Shift=    0.000
 RMSDP=3.66D-04 MaxDP=5.70D-03 DE=-1.42D-01 OVMax= 9.09D-03

 Cycle   4  Pass 1  IDiag  1:
 E= -230.725715811439     Delta-E=       -0.001146511480 Rises=F Damp=F
 DIIS: error= 6.16D-04 at cycle   4 NSaved=   4.
 NSaved= 4 IEnMin= 4 EnMin= -230.725715811439     IErMin= 4 ErrMin= 6.16D-04
 ErrMax= 6.16D-04 EMaxC= 1.00D-01 BMatC= 2.54D-05 BMatP= 1.20D-03
 IDIUse=3 WtCom= 9.94D-01 WtEn= 6.16D-03
 Coeff-Com:  0.774D-02-0.191D-01-0.705D-02 0.102D+01
 Coeff-En:   0.000D+00 0.000D+00 0.000D+00 0.100D+01
 Coeff:      0.769D-02-0.189D-01-0.700D-02 0.102D+01
 Gap=     0.379 Goal=   None    Shift=    0.000
 RMSDP=1.09D-04 MaxDP=2.59D-03 DE=-1.15D-03 OVMax= 1.76D-03

 Cycle   5  Pass 1  IDiag  1:
 E= -230.725759566012     Delta-E=       -0.000043754573 Rises=F Damp=F
 DIIS: error= 1.26D-04 at cycle   5 NSaved=   5.
 NSaved= 5 IEnMin= 5 EnMin= -230.725759566012     IErMin= 5 ErrMin= 1.26D-04
 ErrMax= 1.26D-04 EMaxC= 1.00D-01 BMatC= 1.75D-06 BMatP= 2.54D-05
 IDIUse=3 WtCom= 9.99D-01 WtEn= 1.26D-03
 Coeff-Com:  0.328D-02-0.448D-02-0.430D-01-0.188D+00 0.123D+01
 Coeff-En:   0.000D+00 0.000D+00 0.000D+00 0.000D+00 0.100D+01
 Coeff:      0.328D-02-0.447D-02-0.429D-01-0.188D+00 0.123D+01
 Gap=     0.379 Goal=   None    Shift=    0.000
 RMSDP=3.12D-05 MaxDP=4.71D-04 DE=-4.38D-05 OVMax= 6.45D-04

 Cycle   6  Pass 1  IDiag  1:
 E= -230.725763272474     Delta-E=       -0.000003706462 Rises=F Damp=F
 DIIS: error= 9.25D-06 at cycle   6 NSaved=   6.
 NSaved= 6 IEnMin= 6 EnMin= -230.725763272474     IErMin= 6 ErrMin= 9.25D-06
 ErrMax= 9.25D-06 EMaxC= 1.00D-01 BMatC= 1.21D-08 BMatP= 1.75D-06
 IDIUse=1 WtCom= 1.00D+00 WtEn= 0.00D+00
 Coeff-Com: -0.208D-03 0.322D-03 0.336D-02 0.537D-02-0.967D-01 0.109D+01
 Coeff:     -0.208D-03 0.322D-03 0.336D-02 0.537D-02-0.967D-01 0.109D+01
 Gap=     0.379 Goal=   None    Shift=    0.000
 RMSDP=4.00D-06 MaxDP=4.64D-05 DE=-3.71D-06 OVMax= 4.63D-05

 Cycle   7  Pass 1  IDiag  1:
 E= -230.725763298258     Delta-E=       -0.000000025784 Rises=F Damp=F
 DIIS: error= 3.67D-06 at cycle   7 NSaved=   7.
 NSaved= 7 IEnMin= 7 EnMin= -230.725763298258     IErMin= 7 ErrMin= 3.67D-06
 ErrMax= 3.67D-06 EMaxC= 1.00D-01 BMatC= 1.12D-09 BMatP= 1.21D-08
 IDIUse=1 WtCom= 1.00D+00 WtEn= 0.00D+00
 Coeff-Com: -0.166D-03 0.234D-03 0.224D-02 0.830D-02-0.646D-01 0.153D+00
 Coeff-Com:  0.901D+00
 Coeff:     -0.166D-03 0.234D-03 0.224D-02 0.830D-02-0.646D-01 0.153D+00
 Coeff:      0.901D+00
 Gap=     0.379 Goal=   None    Shift=    0.000
 RMSDP=2.69D-06 MaxDP=7.51D-05 DE=-2.58D-08 OVMax= 1.00D-05

 Cycle   8  Pass 1  IDiag  1:
 E= -230.725763300051     Delta-E=       -0.000000001793 Rises=F Damp=F
 DIIS: error= 6.18D-07 at cycle   8 NSaved=   8.
 NSaved= 8 IEnMin= 8 EnMin= -230.725763300051     IErMin= 8 ErrMin= 6.18D-07
 ErrMax= 6.18D-07 EMaxC= 1.00D-01 BMatC= 5.52D-11 BMatP= 1.12D-09
 IDIUse=1 WtCom= 1.00D+00 WtEn= 0.00D+00
 Coeff-Com:  0.295D-04-0.421D-04-0.506D-03-0.157D-02 0.150D-01-0.869D-01
 Coeff-Com: -0.165D+00 0.124D+01
 Coeff:      0.295D-04-0.421D-04-0.506D-03-0.157D-02 0.150D-01-0.869D-01
 Coeff:     -0.165D+00 0.124D+01
 Gap=     0.379 Goal=   None    Shift=    0.000
 RMSDP=8.68D-07 MaxDP=2.49D-05 DE=-1.79D-09 OVMax= 5.21D-06

 Cycle   9  Pass 1  IDiag  1:
 E= -230.725763300240     Delta-E=       -0.000000000188 Rises=F Damp=F
 DIIS: error= 2.15D-07 at cycle   9 NSaved=   9.
 NSaved= 9 IEnMin= 9 EnMin= -230.725763300240     IErMin= 9 ErrMin= 2.15D-07
 ErrMax= 2.15D-07 EMaxC= 1.00D-01 BMatC= 2.30D-12 BMatP= 5.52D-11
 IDIUse=1 WtCom= 1.00D+00 WtEn= 0.00D+00
 Coeff-Com: -0.875D-05 0.127D-04 0.156D-03 0.444D-03-0.452D-02 0.315D-01
 Coeff-Com:  0.385D-01-0.492D+00 0.143D+01
 Coeff:     -0.875D-05 0.127D-04 0.156D-03 0.444D-03-0.452D-02 0.315D-01
 Coeff:      0.385D-01-0.492D+00 0.143D+01
 Gap=     0.379 Goal=   None    Shift=    0.000
 RMSDP=8.38D-08 MaxDP=1.89D-06 DE=-1.88D-10 OVMax= 1.49D-06

 Cycle  10  Pass 1  IDiag  1:
 E= -230.725763300246     Delta-E=       -0.000000000007 Rises=F Damp=F
 DIIS: error= 4.13D-08 at cycle  10 NSaved=  10.
 NSaved=10 IEnMin=10 EnMin= -230.725763300246     IErMin=10 ErrMin= 4.13D-08
 ErrMax= 4.13D-08 EMaxC= 1.00D-01 BMatC= 1.04D-13 BMatP= 2.30D-12
 IDIUse=1 WtCom= 1.00D+00 WtEn= 0.00D+00
 Coeff-Com: -0.774D-06 0.124D-05 0.833D-05 0.292D-04-0.281D-03 0.123D-02
 Coeff-Com:  0.355D-02-0.149D-01-0.957D-01 0.111D+01
 Coeff:     -0.774D-06 0.124D-05 0.833D-05 0.292D-04-0.281D-03 0.123D-02
 Coeff:      0.355D-02-0.149D-01-0.957D-01 0.111D+01
 Gap=     0.379 Goal=   None    Shift=    0.000
 RMSDP=4.55D-08 MaxDP=1.27D-06 DE=-6.65D-12 OVMax= 2.74D-07

 Cycle  11  Pass 1  IDiag  1:
 E= -230.725763300249     Delta-E=       -0.000000000003 Rises=F Damp=F
 DIIS: error= 1.22D-08 at cycle  11 NSaved=  11.
 NSaved=11 IEnMin=11 EnMin= -230.725763300249     IErMin=11 ErrMin= 1.22D-08
 ErrMax= 1.22D-08 EMaxC= 1.00D-01 BMatC= 1.76D-14 BMatP= 1.04D-13
 IDIUse=1 WtCom= 1.00D+00 WtEn= 0.00D+00
 Coeff-Com:  0.890D-06-0.124D-05-0.180D-04-0.501D-04 0.509D-03-0.374D-02
 Coeff-Com: -0.402D-02 0.594D-01-0.207D+00 0.273D+00 0.883D+00
 Coeff:      0.890D-06-0.124D-05-0.180D-04-0.501D-04 0.509D-03-0.374D-02
 Coeff:     -0.402D-02 0.594D-01-0.207D+00 0.273D+00 0.883D+00
 Gap=     0.379 Goal=   None    Shift=    0.000
 RMSDP=1.77D-08 MaxDP=4.83D-07 DE=-3.13D-12 OVMax= 8.56D-08

 Cycle  12  Pass 1  IDiag  1:
 E= -230.725763300254     Delta-E=       -0.000000000004 Rises=F Damp=F
 DIIS: error= 2.67D-09 at cycle  12 NSaved=  12.
 NSaved=12 IEnMin=12 EnMin= -230.725763300254     IErMin=12 ErrMin= 2.67D-09
 ErrMax= 2.67D-09 EMaxC= 1.00D-01 BMatC= 6.12D-16 BMatP= 1.76D-14
 IDIUse=1 WtCom= 1.00D+00 WtEn= 0.00D+00
 Coeff-Com: -0.197D-06 0.256D-06 0.467D-05 0.120D-04-0.125D-03 0.977D-03
 Coeff-Com:  0.947D-03-0.159D-01 0.656D-01-0.144D+00-0.256D+00 0.135D+01
 Coeff:     -0.197D-06 0.256D-06 0.467D-05 0.120D-04-0.125D-03 0.977D-03
 Coeff:      0.947D-03-0.159D-01 0.656D-01-0.144D+00-0.256D+00 0.135D+01
 Gap=     0.379 Goal=   None    Shift=    0.000
 RMSDP=3.77D-09 MaxDP=1.05D-07 DE=-4.26D-12 OVMax= 2.18D-08

 SCF Done:  E(RHF) =  -230.725763300     A.U. after   12 cycles
             Convg  =    0.3769D-08             -V/T =  2.0013
 KE= 2.304236944556D+02 PE=-9.438050969864D+02 EE= 2.790884397067D+02
 Leave Link  502 at Fri Dec  3 12:17:20 2021, MaxMem=  498073600 cpu:      35.2
 (Enter /apps/software//g09/l801.exe)
 ExpMin= 3.60D-02 ExpMax= 4.56D+03 ExpMxC= 6.82D+02 IAcc=3 IRadAn=         5 AccDes= 0.00D+00
 HarFok:  IExCor=  205 AccDes= 0.00D+00 IRadAn=         5 IDoV=-2
 ScaDFX=  1.000000  1.000000  1.000000  1.000000
 Largest valence mixing into a core orbital is  1.52D-04
 Largest core mixing into a valence orbital is  3.98D-05
 Range of M.O.s used for correlation:     7   174
 NBasis=   174 NAE=    21 NBE=    21 NFC=     6 NFV=     0
 NROrb=    168 NOA=    15 NOB=    15 NVA=   153 NVB=   153

 **** Warning!!: The largest alpha MO coefficient is  0.17317326D+03

 Leave Link  801 at Fri Dec  3 12:17:20 2021, MaxMem=  498073600 cpu:       1.2
 (Enter /apps/software//g09/l906.exe)
 Frozen-core derivative calculation, NFC=   6 NFV=   0.
 FulOut=F Deriv=T AODrv=F NAtomX=    12
   MMem=         572  MDisk=          15 MDiskD=          15
  W3Min=      657720 MinDsk=     1009670 NBas6D=         180
 NBas2D=       16542    NTT=       16290    LW2=     2040000
    MDV=   497694387 MDiskM=       38248 NBas2p=        4822
 Fully in-core method, ICMem=   280919484.
 IMap=   1   2   3   4   5   6   7   8   9  10  11  12  13  14  15  16  17  18  19  20
 IMap=  21
 JobTyp=1 Pass  1 fully in-core, NPsUse=  6.
 Compute canonical integrals, IntTyp=   4.
 Symmetry not used in FoFDir.
 MinBra= 0 MaxBra= 2 Meth= 1.
 IRaf=       0 NMat=   1 IRICut=       1 DoRegI=T DoRafI=F ISym2E= 0 JSym2E=0.
 Spin components of T(2) and E(2):
     alpha-alpha T2 =       0.4300394716D-01 E2=     -0.1085732663D+00
     alpha-beta  T2 =       0.2266913914D+00 E2=     -0.6166473394D+00
     beta-beta   T2 =       0.4300394716D-01 E2=     -0.1085732663D+00
 The integrals were generated   1 times.
 ANorm=    0.1145730896D+01
 E2 =    -0.8337938719D+00 EUMP2 =    -0.23155955717219D+03
 Leave Link  906 at Fri Dec  3 12:18:09 2021, MaxMem=  498073600 cpu:     291.8
 (Enter /apps/software//g09/l1002.exe)
 Minotr:  Closed shell wavefunction.
          Computing MP2/KS-MP2 derivatives.
          Using Z-Vector for PSCF gradient.
          Skipping F1 and S1 gradient terms here.
          Frozen-core window.
          Direct CPHF calculation.
          Differentiating once with respect to electric field.
                with respect to dipole field.
          Electric field/nuclear overlap derivatives assumed to be zero.
          Using symmetry in CPHF.
          Requested convergence is 1.0D-10 RMS, and 1.0D-09 maximum.
          NewPWx=F KeepS1=T KeepF1=T KeepIn=T MapXYZ=F SortEE=F KeepMc=T.
          MDV=     498073500 using IRadAn=       0.
          Keep R1 ints in memory in canonical form, NReq=133512102.
 Symmetry not used in FoFDir.
 MinBra= 0 MaxBra= 2 Meth= 1.
 IRaf=       0 NMat=   1 IRICut=       1 DoRegI=T DoRafI=F ISym2E= 0 JSym2E=0.
          Solving linear equations separately, MaxMat=       0.
          There are     1 degrees of freedom in the 1st order CPHF.  IDoFFX=0.
 LinEq1:  Iter=  0 NonCon=     1 RMS=3.45D-03 Max=5.92D-02
 AX will form     1 AO Fock derivatives at one time.
 LinEq1:  Iter=  1 NonCon=     1 RMS=8.35D-04 Max=1.46D-02
 LinEq1:  Iter=  2 NonCon=     1 RMS=2.39D-04 Max=5.30D-03
 LinEq1:  Iter=  3 NonCon=     1 RMS=5.22D-05 Max=7.33D-04
 LinEq1:  Iter=  4 NonCon=     1 RMS=9.24D-06 Max=1.23D-04
 LinEq1:  Iter=  5 NonCon=     1 RMS=1.91D-06 Max=3.23D-05
 LinEq1:  Iter=  6 NonCon=     1 RMS=5.59D-07 Max=8.25D-06
 LinEq1:  Iter=  7 NonCon=     1 RMS=8.51D-08 Max=1.32D-06
 LinEq1:  Iter=  8 NonCon=     1 RMS=8.31D-09 Max=1.39D-07
 LinEq1:  Iter=  9 NonCon=     1 RMS=9.70D-10 Max=1.36D-08
 LinEq1:  Iter= 10 NonCon=     1 RMS=3.46D-10 Max=6.27D-09
 LinEq1:  Iter= 11 NonCon=     1 RMS=8.30D-11 Max=1.16D-09
 LinEq1:  Iter= 12 NonCon=     0 RMS=9.47D-12 Max=1.54D-10
 Linear equations converged to 1.000D-10 1.000D-09 after    12 iterations.
 End of Minotr Frequency-dependent properties file   721 does not exist.
 End of Minotr Frequency-dependent properties file   722 does not exist.
 Leave Link 1002 at Fri Dec  3 12:18:15 2021, MaxMem=  498073600 cpu:      36.9
 (Enter /apps/software//g09/l601.exe)
 Copying SCF densities to generalized density rwf, IOpCl= 0 IROHF=0.

 **********************************************************************

            Population analysis using the MP2 density.

 **********************************************************************

 Orbital symmetries:
       Occupied  (A1) (B2) (B1) (A1) (A2) (B2) (A1) (B2) (B1) (A1)
                 (A2) (A1) (B2) (B1) (B2) (B1) (A1) (A1) (A2) (B2)
                 (B1)
       Virtual   (A1) (B2) (B1) (A1) (A2) (B2) (A1) (A2) (A1) (B2)
                 (B1) (A1) (B1) (A2) (A1) (A1) (B2) (B1) (B2) (A1)
                 (A2) (A1) (A2) (B2) (B2) (B1) (B2) (B1) (A1) (A1)
                 (A2) (A2) (B2) (B2) (B2) (B1) (A1) (A2) (B2) (A2)
                 (A1) (B2) (B1) (A1) (B1) (A1) (B2) (B1) (B2) (B1)
                 (B2) (A2) (A1) (A2) (A1) (A1) (A2) (B2) (B2) (B1)
                 (A2) (A1) (B1) (B2) (A1) (A2) (A1) (B2) (B1) (B2)
                 (B2) (A1) (A2) (A2) (A1) (B1) (B2) (B2) (B1) (A1)
                 (A2) (A1) (B1) (B2) (B1) (A1) (A2) (A1) (B2) (B1)
                 (B2) (A2) (A1) (A1) (B2) (B1) (A1) (A2) (A2) (B1)
                 (B2) (B1) (B2) (A2) (A1) (B1) (B2) (A2) (A1) (B2)
                 (A1) (A2) (A2) (A1) (B2) (B1) (B2) (B1) (B2) (A1)
                 (A2) (B1) (B2) (A1) (A1) (B2) (B1) (B2) (A2) (A2)
                 (A1) (A2) (A1) (B1) (B2) (A1) (A2) (A1) (B1) (B2)
                 (B2) (A2) (A1) (B1) (B2) (B2) (A2) (A1) (B2) (B1)
                 (A2) (A1) (B2)
 The electronic state is 1-A1.
 Alpha  occ. eigenvalues --  -11.24203 -11.24147 -11.24147 -11.24025 -11.24025
 Alpha  occ. eigenvalues --  -11.23966  -1.15394  -1.01883  -1.01882  -0.82590
 Alpha  occ. eigenvalues --   -0.82588  -0.71044  -0.63959  -0.62122  -0.58948
 Alpha  occ. eigenvalues --   -0.58945  -0.50255  -0.49359  -0.49358  -0.33693
 Alpha  occ. eigenvalues --   -0.33692
 Alpha virt. eigenvalues --    0.04251   0.05264   0.05264   0.07029   0.07029
 Alpha virt. eigenvalues --    0.09197   0.10147   0.10147   0.12310   0.14554
 Alpha virt. eigenvalues --    0.14554   0.16286   0.16409   0.18314   0.18314
 Alpha virt. eigenvalues --    0.19392   0.19641   0.19811   0.19811   0.21109
 Alpha virt. eigenvalues --    0.21109   0.21815   0.21815   0.22714   0.22719
 Alpha virt. eigenvalues --    0.22719   0.25268   0.25268   0.26695   0.28812
 Alpha virt. eigenvalues --    0.28812   0.30448   0.30956   0.35478   0.36832
 Alpha virt. eigenvalues --    0.36833   0.42921   0.42922   0.46823   0.47847
 Alpha virt. eigenvalues --    0.47849   0.50481   0.50481   0.59424   0.60451
 Alpha virt. eigenvalues --    0.71653   0.72483   0.73528   0.73528   0.74548
 Alpha virt. eigenvalues --    0.74548   0.75658   0.77007   0.77008   0.79378
 Alpha virt. eigenvalues --    0.80105   0.80105   0.86425   0.87293   0.87293
 Alpha virt. eigenvalues --    0.90675   0.90676   0.91727   0.91727   0.92293
 Alpha virt. eigenvalues --    0.93022   0.93025   1.04136   1.08305   1.08306
 Alpha virt. eigenvalues --    1.10455   1.12066   1.12066   1.12759   1.20008
 Alpha virt. eigenvalues --    1.22620   1.27485   1.45059   1.45061   1.53803
 Alpha virt. eigenvalues --    1.53805   1.56600   1.72785   1.76045   1.76052
 Alpha virt. eigenvalues --    1.77314   1.81805   1.81805   1.87225   1.87230
 Alpha virt. eigenvalues --    1.97071   1.98644   1.98650   1.99909   2.03468
 Alpha virt. eigenvalues --    2.03473   2.07033   2.07035   2.07745   2.12915
 Alpha virt. eigenvalues --    2.19946   2.19947   2.30255   2.30272   2.30275
 Alpha virt. eigenvalues --    2.34801   2.34802   2.41559   2.41561   2.59446
 Alpha virt. eigenvalues --    2.67282   2.67288   2.72949   2.73256   2.79168
 Alpha virt. eigenvalues --    2.79171   2.86477   2.88373   2.88377   2.97569
 Alpha virt. eigenvalues --    2.97571   2.97698   2.97699   2.97987   3.06592
 Alpha virt. eigenvalues --    3.11078   3.22306   3.22307   3.24139   3.26246
 Alpha virt. eigenvalues --    3.26256   3.32522   3.32522   3.53113   3.53189
 Alpha virt. eigenvalues --    3.76656   3.76659   3.86604   3.89287   3.89291
 Alpha virt. eigenvalues --    3.95952   4.39750   4.39753   4.50483   4.50487
 Alpha virt. eigenvalues --    4.56448   5.22017  24.72024  25.11965  25.11968
 Alpha virt. eigenvalues --   25.23854  25.23856  25.31746
          Condensed to atoms (all electrons):
              1          2          3          4          5          6
     1  C    6.983543  -1.223716   1.287764  -1.252304   1.287740  -1.223919
     2  C   -1.223716   6.983543  -1.223919   1.287740  -1.252304   1.287764
     3  C    1.287764  -1.223919   6.983925  -1.223919   1.287764  -1.252396
     4  C   -1.252304   1.287740  -1.223919   6.983543  -1.223716   1.287764
     5  C    1.287740  -1.252304   1.287764  -1.223716   6.983543  -1.223919
     6  C   -1.223919   1.287764  -1.252396   1.287764  -1.223919   6.983925
     7  H    0.428452  -0.089243   0.026677  -0.015028   0.026682  -0.089262
     8  H   -0.089243   0.428452  -0.089262   0.026682  -0.015028   0.026677
     9  H    0.026653  -0.089191   0.428385  -0.089191   0.026653  -0.015014
    10  H   -0.015028   0.026682  -0.089262   0.428452  -0.089243   0.026677
    11  H    0.026682  -0.015028   0.026677  -0.089243   0.428452  -0.089262
    12  H   -0.089191   0.026653  -0.015014   0.026653  -0.089191   0.428385
              7          8          9         10         11         12
     1  C    0.428452  -0.089243   0.026653  -0.015028   0.026682  -0.089191
     2  C   -0.089243   0.428452  -0.089191   0.026682  -0.015028   0.026653
     3  C    0.026677  -0.089262   0.428385  -0.089262   0.026677  -0.015014
     4  C   -0.015028   0.026682  -0.089191   0.428452  -0.089243   0.026653
     5  C    0.026682  -0.015028   0.026653  -0.089243   0.428452  -0.089191
     6  C   -0.089262   0.026677  -0.015014   0.026677  -0.089262   0.428385
     7  H    0.569989  -0.003158   0.000259   0.000114   0.000261  -0.003157
     8  H   -0.003158   0.569989  -0.003157   0.000261   0.000114   0.000259
     9  H    0.000259  -0.003157   0.569931  -0.003157   0.000259   0.000114
    10  H    0.000114   0.000261  -0.003157   0.569989  -0.003158   0.000259
    11  H    0.000261   0.000114   0.000259  -0.003158   0.569989  -0.003157
    12  H   -0.003157   0.000259   0.000114   0.000259  -0.003157   0.569931
 Mulliken atomic charges:
              1
     1  C   -0.147432
     2  C   -0.147432
     3  C   -0.147420
     4  C   -0.147432
     5  C   -0.147432
     6  C   -0.147420
     7  H    0.147414
     8  H    0.147414
     9  H    0.147456
    10  H    0.147414
    11  H    0.147414
    12  H    0.147456
 Sum of Mulliken atomic charges =   0.00000
 Mulliken charges with hydrogens summed into heavy atoms:
              1
     1  C   -0.000018
     2  C   -0.000018
     3  C    0.000035
     4  C   -0.000018
     5  C   -0.000018
     6  C    0.000035
 Sum of Mulliken charges with hydrogens summed into heavy atoms =   0.00000
 Electronic spatial extent (au):  <R**2>=            458.7363
 Charge=              0.0000 electrons
 Dipole moment (field-independent basis, Debye):
    X=              0.0000    Y=              0.0000    Z=              1.4595  Tot=              1.4595
 Quadrupole moment (field-independent basis, Debye-Ang):
   XX=            -33.7359   YY=            -33.7353   ZZ=            -40.0594
   XY=              0.0000   XZ=              0.0000   YZ=              0.0000
 Traceless Quadrupole moment (field-independent basis, Debye-Ang):
   XX=              2.1077   YY=              2.1082   ZZ=             -4.2159
   XY=              0.0000   XZ=              0.0000   YZ=              0.0000
 Octapole moment (field-independent basis, Debye-Ang**2):
  XXX=              0.0000  YYY=              0.0000  ZZZ=              2.5663  XYY=              0.0000
  XXY=              0.0000  XXZ=              6.4538  XZZ=              0.0000  YZZ=              0.0000
  YYZ=              6.4539  XYZ=              0.0000
 Hexadecapole moment (field-independent basis, Debye-Ang**3):
 XXXX=           -289.6767 YYYY=           -289.6916 ZZZZ=            -53.9721 XXXY=              0.0000
 XXXZ=              0.0000 YYYX=              0.0000 YYYZ=              0.0000 ZZZX=              0.0000
 ZZZY=              0.0000 XXYY=            -96.5662 XXZZ=            -64.3146 YYZZ=            -64.3177
 XXYZ=              0.0000 YYXZ=              0.0000 ZZXY=              0.0000
 N-N= 2.035671995239D+02 E-N=-9.446564429203D+02  KE= 2.314519535908D+02
 Symmetry A1   KE= 7.644940152249D+01
 Symmetry A2   KE= 3.795089358006D+01
 Symmetry B1   KE= 4.256970896051D+01
 Symmetry B2   KE= 7.448194952772D+01
 No NMR shielding tensors so no spin-rotation constants.
 Leave Link  601 at Fri Dec  3 12:18:15 2021, MaxMem=  498073600 cpu:       1.6
 (Enter /apps/software//g09/l9999.exe)
 1\1\GINC-DLT01\SP\RMP2-FC\6-311++G(d,p)\C6H6\ITAMAR\03-Dec-2021\0\\#P 
 MP2/6-311++G** DENSITY=MP2\\Pyramid-20\\0,1\C,0,1.210156,-0.698711,-0.
 053047\C,0,1.210156,0.698711,-0.053047\C,0,0.,1.397479,-0.053014\C,0,-
 1.210156,0.698711,-0.053047\C,0,-1.210156,-0.698711,-0.053047\C,0,0.,-
 1.397479,-0.053014\H,0,2.093563,-1.208626,0.318206\H,0,2.093563,1.2086
 25,0.318207\H,0,0.,2.417483,0.318237\H,0,-2.093563,1.208626,0.318206\H
 ,0,-2.093563,-1.208625,0.318207\H,0,0.,-2.417483,0.318237\\Version=EM6
 4L-G09RevA.02\State=1-A1\HF=-230.7257633\MP2=-231.5595572\RMSD=3.769e-
 09\Dipole=0.,0.,0.5742255\Quadrupole=1.5669997,1.5674072,-3.134407,0.,
 0.,0.\PG=C02V [SGV(C2H2),X(C4H4)]\\@


 REFRAIN FROM ILLUSIONS, INSIST ON WORK AND NOT WORDS,
 PATIENTLY SEEK DIVINE AND SCIENTIFIC TRUTH.
 LAST WORDS OF MARIA MENDELEEVA TO HER SON DMITRI, C. 1850
 Job cpu time:  0 days  0 hours  6 minutes 12.6 seconds.
 File lengths (MBytes):  RWF=     14 Int=      0 D2E=      0 Chk=      4 Scr=      1
 Normal termination of Gaussian 09 at Fri Dec  3 12:18:16 2021.
