Acetylene trimerization                                                 
FOpt      RMP2-FC                                                     6-311++G(d,p)       
Number of atoms                            I               12
Info1-9                                    I   N=           9
          22          21           0           0           0         100
           2           2           1
Charge                                     I                0
Multiplicity                               I                1
Number of electrons                        I               42
Number of alpha electrons                  I               21
Number of beta electrons                   I               21
Number of basis functions                  I              174
Number of independent functions            I              174
Number of point charges in /Mol/           I                0
Number of translation vectors              I                0
Atomic numbers                             I   N=          12
           6           6           6           6           6           6
           1           1           1           1           1           1
Nuclear charges                            R   N=          12
  6.00000000E+00  6.00000000E+00  6.00000000E+00  6.00000000E+00  6.00000000E+00
  6.00000000E+00  1.00000000E+00  1.00000000E+00  1.00000000E+00  1.00000000E+00
  1.00000000E+00  1.00000000E+00
Current cartesian coordinates              R   N=          36
 -2.21324817E+00  2.68376271E+00 -1.89702763E-02 -2.85694968E-02  3.47148848E+00
  1.85991964E-02  3.42165743E+00  5.81080753E-01  2.57513610E-02 -2.98752019E+00
 -1.75231135E+00 -3.27445092E-02  3.02827802E+00 -1.70555309E+00 -2.72023386E-02
 -1.21384886E+00 -3.24758696E+00  3.74902476E-02  1.54880828E+00  4.68100273E+00
  3.17742192E-01 -4.20175262E+00  2.64500579E+00 -3.11077026E-01 -4.85055980E+00
 -1.00666798E+00 -1.01577956E-01  4.40210436E+00  2.33402829E+00  2.22540725E-02
 -1.66616305E-01 -4.95530247E+00  1.86452402E-01  3.30918236E+00 -3.69293458E+00
 -1.04275479E-01
Force Field                                I                0
Int Atom Types                             I   N=          12
           0           0           0           0           0           0
           0           0           0           0           0           0
MM charges                                 R   N=          12
  0.00000000E+00  0.00000000E+00  0.00000000E+00  0.00000000E+00  0.00000000E+00
  0.00000000E+00  0.00000000E+00  0.00000000E+00  0.00000000E+00  0.00000000E+00
  0.00000000E+00  0.00000000E+00
Integer atomic weights                     I   N=          12
          12          12          12          12          12          12
           1           1           1           1           1           1
Real atomic weights                        R   N=          12
  1.20000000E+01  1.20000000E+01  1.20000000E+01  1.20000000E+01  1.20000000E+01
  1.20000000E+01  1.00782504E+00  1.00782504E+00  1.00782504E+00  1.00782504E+00
  1.00782504E+00  1.00782504E+00
Atom fragment info                         I   N=          12
           0           0           0           0           0           0
           0           0           0           0           0           0
Atom residue num                           I   N=          12
           0           0           0           0           0           0
           0           0           0           0           0           0
Nuclear spins                              I   N=          12
           0           0           0           0           0           0
           1           1           1           1           1           1
Nuclear ZEff                               R   N=          12
 -3.60000000E+00 -3.60000000E+00 -3.60000000E+00 -3.60000000E+00 -3.60000000E+00
 -3.60000000E+00 -1.00000000E+00 -1.00000000E+00 -1.00000000E+00 -1.00000000E+00
 -1.00000000E+00 -1.00000000E+00
Nuclear QMom                               R   N=          12
  0.00000000E+00  0.00000000E+00  0.00000000E+00  0.00000000E+00  0.00000000E+00
  0.00000000E+00  0.00000000E+00  0.00000000E+00  0.00000000E+00  0.00000000E+00
  0.00000000E+00  0.00000000E+00
Nuclear GFac                               R   N=          12
  0.00000000E+00  0.00000000E+00  0.00000000E+00  0.00000000E+00  0.00000000E+00
  0.00000000E+00  2.79284600E+00  2.79284600E+00  2.79284600E+00  2.79284600E+00
  2.79284600E+00  2.79284600E+00
MicOpt                                     I   N=          12
          -1          -1          -1          -1          -1          -1
          -1          -1          -1          -1          -1          -1
Number of contracted shells                I               66
Number of primitive shells                 I              120
Pure/Cartesian d shells                    I                0
Pure/Cartesian f shells                    I                0
Highest angular momentum                   I                2
Largest degree of contraction              I                6
Shell types                                I   N=          66
           0          -1          -1          -1          -1          -2
           0          -1          -1          -1          -1          -2
           0          -1          -1          -1          -1          -2
           0          -1          -1          -1          -1          -2
           0          -1          -1          -1          -1          -2
           0          -1          -1          -1          -1          -2
           0           0           0           0           1           0
           0           0           0           1           0           0
           0           0           1           0           0           0
           0           1           0           0           0           0
           1           0           0           0           0           1
Number of primitives per shell             I   N=          66
           6           3           1           1           1           1
           6           3           1           1           1           1
           6           3           1           1           1           1
           6           3           1           1           1           1
           6           3           1           1           1           1
           6           3           1           1           1           1
           3           1           1           1           1           3
           1           1           1           1           3           1
           1           1           1           3           1           1
           1           1           3           1           1           1
           1           3           1           1           1           1
Shell to atom map                          I   N=          66
           1           1           1           1           1           1
           2           2           2           2           2           2
           3           3           3           3           3           3
           4           4           4           4           4           4
           5           5           5           5           5           5
           6           6           6           6           6           6
           7           7           7           7           7           8
           8           8           8           8           9           9
           9           9           9          10          10          10
          10          10          11          11          11          11
          11          12          12          12          12          12
Primitive exponents                        R   N=         120
  4.56324000E+03  6.82024000E+02  1.54973000E+02  4.44553000E+01  1.30290000E+01
  1.82773000E+00  2.09642000E+01  4.80331000E+00  1.45933000E+00  4.83456000E-01
  1.45585000E-01  4.38000000E-02  6.26000000E-01  4.56324000E+03  6.82024000E+02
  1.54973000E+02  4.44553000E+01  1.30290000E+01  1.82773000E+00  2.09642000E+01
  4.80331000E+00  1.45933000E+00  4.83456000E-01  1.45585000E-01  4.38000000E-02
  6.26000000E-01  4.56324000E+03  6.82024000E+02  1.54973000E+02  4.44553000E+01
  1.30290000E+01  1.82773000E+00  2.09642000E+01  4.80331000E+00  1.45933000E+00
  4.83456000E-01  1.45585000E-01  4.38000000E-02  6.26000000E-01  4.56324000E+03
  6.82024000E+02  1.54973000E+02  4.44553000E+01  1.30290000E+01  1.82773000E+00
  2.09642000E+01  4.80331000E+00  1.45933000E+00  4.83456000E-01  1.45585000E-01
  4.38000000E-02  6.26000000E-01  4.56324000E+03  6.82024000E+02  1.54973000E+02
  4.44553000E+01  1.30290000E+01  1.82773000E+00  2.09642000E+01  4.80331000E+00
  1.45933000E+00  4.83456000E-01  1.45585000E-01  4.38000000E-02  6.26000000E-01
  4.56324000E+03  6.82024000E+02  1.54973000E+02  4.44553000E+01  1.30290000E+01
  1.82773000E+00  2.09642000E+01  4.80331000E+00  1.45933000E+00  4.83456000E-01
  1.45585000E-01  4.38000000E-02  6.26000000E-01  3.38650000E+01  5.09479000E+00
  1.15879000E+00  3.25840000E-01  1.02741000E-01  3.60000000E-02  7.50000000E-01
  3.38650000E+01  5.09479000E+00  1.15879000E+00  3.25840000E-01  1.02741000E-01
  3.60000000E-02  7.50000000E-01  3.38650000E+01  5.09479000E+00  1.15879000E+00
  3.25840000E-01  1.02741000E-01  3.60000000E-02  7.50000000E-01  3.38650000E+01
  5.09479000E+00  1.15879000E+00  3.25840000E-01  1.02741000E-01  3.60000000E-02
  7.50000000E-01  3.38650000E+01  5.09479000E+00  1.15879000E+00  3.25840000E-01
  1.02741000E-01  3.60000000E-02  7.50000000E-01  3.38650000E+01  5.09479000E+00
  1.15879000E+00  3.25840000E-01  1.02741000E-01  3.60000000E-02  7.50000000E-01
Contraction coefficients                   R   N=         120
  1.96665025E-03  1.52306019E-02  7.61269097E-02  2.60801033E-01  6.16462078E-01
  2.21006028E-01  1.14660081E-01  9.19999648E-01 -3.03068213E-03  1.00000000E+00
  1.00000000E+00  1.00000000E+00  1.00000000E+00  1.96665025E-03  1.52306019E-02
  7.61269097E-02  2.60801033E-01  6.16462078E-01  2.21006028E-01  1.14660081E-01
  9.19999648E-01 -3.03068213E-03  1.00000000E+00  1.00000000E+00  1.00000000E+00
  1.00000000E+00  1.96665025E-03  1.52306019E-02  7.61269097E-02  2.60801033E-01
  6.16462078E-01  2.21006028E-01  1.14660081E-01  9.19999648E-01 -3.03068213E-03
  1.00000000E+00  1.00000000E+00  1.00000000E+00  1.00000000E+00  1.96665025E-03
  1.52306019E-02  7.61269097E-02  2.60801033E-01  6.16462078E-01  2.21006028E-01
  1.14660081E-01  9.19999648E-01 -3.03068213E-03  1.00000000E+00  1.00000000E+00
  1.00000000E+00  1.00000000E+00  1.96665025E-03  1.52306019E-02  7.61269097E-02
  2.60801033E-01  6.16462078E-01  2.21006028E-01  1.14660081E-01  9.19999648E-01
 -3.03068213E-03  1.00000000E+00  1.00000000E+00  1.00000000E+00  1.00000000E+00
  1.96665025E-03  1.52306019E-02  7.61269097E-02  2.60801033E-01  6.16462078E-01
  2.21006028E-01  1.14660081E-01  9.19999648E-01 -3.03068213E-03  1.00000000E+00
  1.00000000E+00  1.00000000E+00  1.00000000E+00  2.54938145E-02  1.90373109E-01
  8.52161486E-01  1.00000000E+00  1.00000000E+00  1.00000000E+00  1.00000000E+00
  2.54938145E-02  1.90373109E-01  8.52161486E-01  1.00000000E+00  1.00000000E+00
  1.00000000E+00  1.00000000E+00  2.54938145E-02  1.90373109E-01  8.52161486E-01
  1.00000000E+00  1.00000000E+00  1.00000000E+00  1.00000000E+00  2.54938145E-02
  1.90373109E-01  8.52161486E-01  1.00000000E+00  1.00000000E+00  1.00000000E+00
  1.00000000E+00  2.54938145E-02  1.90373109E-01  8.52161486E-01  1.00000000E+00
  1.00000000E+00  1.00000000E+00  1.00000000E+00  2.54938145E-02  1.90373109E-01
  8.52161486E-01  1.00000000E+00  1.00000000E+00  1.00000000E+00  1.00000000E+00
P(S=P) Contraction coefficients            R   N=         120
  0.00000000E+00  0.00000000E+00  0.00000000E+00  0.00000000E+00  0.00000000E+00
  0.00000000E+00  4.02486927E-02  2.37593957E-01  8.15853851E-01  1.00000000E+00
  1.00000000E+00  1.00000000E+00  0.00000000E+00  0.00000000E+00  0.00000000E+00
  0.00000000E+00  0.00000000E+00  0.00000000E+00  0.00000000E+00  4.02486927E-02
  2.37593957E-01  8.15853851E-01  1.00000000E+00  1.00000000E+00  1.00000000E+00
  0.00000000E+00  0.00000000E+00  0.00000000E+00  0.00000000E+00  0.00000000E+00
  0.00000000E+00  0.00000000E+00  4.02486927E-02  2.37593957E-01  8.15853851E-01
  1.00000000E+00  1.00000000E+00  1.00000000E+00  0.00000000E+00  0.00000000E+00
  0.00000000E+00  0.00000000E+00  0.00000000E+00  0.00000000E+00  0.00000000E+00
  4.02486927E-02  2.37593957E-01  8.15853851E-01  1.00000000E+00  1.00000000E+00
  1.00000000E+00  0.00000000E+00  0.00000000E+00  0.00000000E+00  0.00000000E+00
  0.00000000E+00  0.00000000E+00  0.00000000E+00  4.02486927E-02  2.37593957E-01
  8.15853851E-01  1.00000000E+00  1.00000000E+00  1.00000000E+00  0.00000000E+00
  0.00000000E+00  0.00000000E+00  0.00000000E+00  0.00000000E+00  0.00000000E+00
  0.00000000E+00  4.02486927E-02  2.37593957E-01  8.15853851E-01  1.00000000E+00
  1.00000000E+00  1.00000000E+00  0.00000000E+00  0.00000000E+00  0.00000000E+00
  0.00000000E+00  0.00000000E+00  0.00000000E+00  0.00000000E+00  0.00000000E+00
  0.00000000E+00  0.00000000E+00  0.00000000E+00  0.00000000E+00  0.00000000E+00
  0.00000000E+00  0.00000000E+00  0.00000000E+00  0.00000000E+00  0.00000000E+00
  0.00000000E+00  0.00000000E+00  0.00000000E+00  0.00000000E+00  0.00000000E+00
  0.00000000E+00  0.00000000E+00  0.00000000E+00  0.00000000E+00  0.00000000E+00
  0.00000000E+00  0.00000000E+00  0.00000000E+00  0.00000000E+00  0.00000000E+00
  0.00000000E+00  0.00000000E+00  0.00000000E+00  0.00000000E+00  0.00000000E+00
  0.00000000E+00  0.00000000E+00  0.00000000E+00  0.00000000E+00  0.00000000E+00
Coordinates of each shell                  R   N=         198
 -2.21324817E+00  2.68376271E+00 -1.89702763E-02 -2.21324817E+00  2.68376271E+00
 -1.89702763E-02 -2.21324817E+00  2.68376271E+00 -1.89702763E-02 -2.21324817E+00
  2.68376271E+00 -1.89702763E-02 -2.21324817E+00  2.68376271E+00 -1.89702763E-02
 -2.21324817E+00  2.68376271E+00 -1.89702763E-02 -2.85694968E-02  3.47148848E+00
  1.85991964E-02 -2.85694968E-02  3.47148848E+00  1.85991964E-02 -2.85694968E-02
  3.47148848E+00  1.85991964E-02 -2.85694968E-02  3.47148848E+00  1.85991964E-02
 -2.85694968E-02  3.47148848E+00  1.85991964E-02 -2.85694968E-02  3.47148848E+00
  1.85991964E-02  3.42165743E+00  5.81080753E-01  2.57513610E-02  3.42165743E+00
  5.81080753E-01  2.57513610E-02  3.42165743E+00  5.81080753E-01  2.57513610E-02
  3.42165743E+00  5.81080753E-01  2.57513610E-02  3.42165743E+00  5.81080753E-01
  2.57513610E-02  3.42165743E+00  5.81080753E-01  2.57513610E-02 -2.98752019E+00
 -1.75231135E+00 -3.27445092E-02 -2.98752019E+00 -1.75231135E+00 -3.27445092E-02
 -2.98752019E+00 -1.75231135E+00 -3.27445092E-02 -2.98752019E+00 -1.75231135E+00
 -3.27445092E-02 -2.98752019E+00 -1.75231135E+00 -3.27445092E-02 -2.98752019E+00
 -1.75231135E+00 -3.27445092E-02  3.02827802E+00 -1.70555309E+00 -2.72023386E-02
  3.02827802E+00 -1.70555309E+00 -2.72023386E-02  3.02827802E+00 -1.70555309E+00
 -2.72023386E-02  3.02827802E+00 -1.70555309E+00 -2.72023386E-02  3.02827802E+00
 -1.70555309E+00 -2.72023386E-02  3.02827802E+00 -1.70555309E+00 -2.72023386E-02
 -1.21384886E+00 -3.24758696E+00  3.74902476E-02 -1.21384886E+00 -3.24758696E+00
  3.74902476E-02 -1.21384886E+00 -3.24758696E+00  3.74902476E-02 -1.21384886E+00
 -3.24758696E+00  3.74902476E-02 -1.21384886E+00 -3.24758696E+00  3.74902476E-02
 -1.21384886E+00 -3.24758696E+00  3.74902476E-02  1.54880828E+00  4.68100273E+00
  3.17742192E-01  1.54880828E+00  4.68100273E+00  3.17742192E-01  1.54880828E+00
  4.68100273E+00  3.17742192E-01  1.54880828E+00  4.68100273E+00  3.17742192E-01
  1.54880828E+00  4.68100273E+00  3.17742192E-01 -4.20175262E+00  2.64500579E+00
 -3.11077026E-01 -4.20175262E+00  2.64500579E+00 -3.11077026E-01 -4.20175262E+00
  2.64500579E+00 -3.11077026E-01 -4.20175262E+00  2.64500579E+00 -3.11077026E-01
 -4.20175262E+00  2.64500579E+00 -3.11077026E-01 -4.85055980E+00 -1.00666798E+00
 -1.01577956E-01 -4.85055980E+00 -1.00666798E+00 -1.01577956E-01 -4.85055980E+00
 -1.00666798E+00 -1.01577956E-01 -4.85055980E+00 -1.00666798E+00 -1.01577956E-01
 -4.85055980E+00 -1.00666798E+00 -1.01577956E-01  4.40210436E+00  2.33402829E+00
  2.22540725E-02  4.40210436E+00  2.33402829E+00  2.22540725E-02  4.40210436E+00
  2.33402829E+00  2.22540725E-02  4.40210436E+00  2.33402829E+00  2.22540725E-02
  4.40210436E+00  2.33402829E+00  2.22540725E-02 -1.66616305E-01 -4.95530247E+00
  1.86452402E-01 -1.66616305E-01 -4.95530247E+00  1.86452402E-01 -1.66616305E-01
 -4.95530247E+00  1.86452402E-01 -1.66616305E-01 -4.95530247E+00  1.86452402E-01
 -1.66616305E-01 -4.95530247E+00  1.86452402E-01  3.30918236E+00 -3.69293458E+00
 -1.04275479E-01  3.30918236E+00 -3.69293458E+00 -1.04275479E-01  3.30918236E+00
 -3.69293458E+00 -1.04275479E-01  3.30918236E+00 -3.69293458E+00 -1.04275479E-01
  3.30918236E+00 -3.69293458E+00 -1.04275479E-01
Constraint Structure                       R   N=          36
 -2.17649963E+00  2.58242036E+00  0.00000000E+00  0.00000000E+00  3.37712201E+00
  0.00000000E+00  3.32495423E+00  5.93810532E-01  0.00000000E+00 -2.92512787E+00
 -1.68849487E+00  0.00000000E+00  2.92594801E+00 -1.68850620E+00  0.00000000E+00
 -1.14915191E+00 -3.17653325E+00  0.00000000E+00  1.37905599E+00  4.83989476E+00
  0.00000000E+00 -4.17366425E+00  2.81201642E+00  0.00000000E+00 -4.88125331E+00
 -1.22493182E+00  0.00000000E+00  4.52175937E+00  2.20903883E+00  0.00000000E+00
 -3.48199048E-01 -5.02034471E+00  0.00000000E+00  3.50156804E+00 -3.61458500E+00
  0.00000000E+00
Num ILSW                                   I              100
ILSW                                       I   N=         100
           0           0           0           0           2           0
           0           0           0           0           0          -1
           0           0           0           0           0           0
           0           0           0           0           0           1
           0           1           0           0           0           0
           0           0      100000           0          -1           0
           0           0           0           0           0           0
           0           0           0           1           1           0
           0           0           1           0           0           0
           0           0           4          40           0           0
           0           0           0           0           0           0
           0           0           0           0           0           0
           0           0           0           0           0           0
           0           0           0           0           0           0
           0           0           0           0           0           0
           0           0           0           0           0           0
           0           0           0           0
Num RLSW                                   I               40
RLSW                                       R   N=          40
  1.00000000E+00  1.00000000E+00  1.00000000E+00  1.00000000E+00  1.00000000E+00
  0.00000000E+00  0.00000000E+00  1.00000000E+00  0.00000000E+00  0.00000000E+00
  0.00000000E+00  0.00000000E+00  1.00000000E+00  0.00000000E+00  0.00000000E+00
  0.00000000E+00  0.00000000E+00  1.00000000E+00  0.00000000E+00  0.00000000E+00
  0.00000000E+00  0.00000000E+00  1.00000000E+00  0.00000000E+00  0.00000000E+00
  0.00000000E+00  0.00000000E+00  1.00000000E+00  0.00000000E+00  0.00000000E+00
  0.00000000E+00  0.00000000E+00  0.00000000E+00  0.00000000E+00  0.00000000E+00
  0.00000000E+00  0.00000000E+00  0.00000000E+00  1.00000000E+00  1.00000000E+00
MxBond                                     I                2
NBond                                      I   N=          12
           2           2           2           2           2           2
           1           1           1           1           1           1
IBond                                      I   N=          24
           2           8           1           7           5          10
           6           9           3          12           4          11
           2           0           1           0           4           0
           3           0           6           0           5           0
RBond                                      R   N=          24
  3.00000000E+00  1.00000000E+00  3.00000000E+00  1.00000000E+00  3.00000000E+00
  1.00000000E+00  3.00000000E+00  1.00000000E+00  3.00000000E+00  1.00000000E+00
  3.00000000E+00  1.00000000E+00  1.00000000E+00  0.00000000E+00  1.00000000E+00
  0.00000000E+00  1.00000000E+00  0.00000000E+00  1.00000000E+00  0.00000000E+00
  1.00000000E+00  0.00000000E+00  1.00000000E+00  0.00000000E+00
Virial Ratio                               R      2.001405680565731E+00
SCF Energy                                 R     -2.304091957385505E+02
MP2 Energy                                 R     -2.312755573433689E+02
Total Energy                               R     -2.312755573433689E+02
Post-SCF wavefunction norm                 R      1.167909377850736E+00
RMS Force                                  R      6.936701016716407E-03
RMS Density                                R      7.204798389896112E-09
External E-field                           R   N=          35
  0.00000000E+00  0.00000000E+00  0.00000000E+00  0.00000000E+00  0.00000000E+00
  0.00000000E+00  0.00000000E+00  0.00000000E+00  0.00000000E+00  0.00000000E+00
  0.00000000E+00  0.00000000E+00  0.00000000E+00  0.00000000E+00  0.00000000E+00
  0.00000000E+00  0.00000000E+00  0.00000000E+00  0.00000000E+00  0.00000000E+00
  0.00000000E+00  0.00000000E+00  0.00000000E+00  0.00000000E+00  0.00000000E+00
  0.00000000E+00  0.00000000E+00  0.00000000E+00  0.00000000E+00  0.00000000E+00
  0.00000000E+00  0.00000000E+00  0.00000000E+00  0.00000000E+00  0.00000000E+00
IOpCl                                      I                0
IROHF                                      I                0
Alpha Orbital Energies                     R   N=         174
 -1.12404312E+01 -1.12399769E+01 -1.12398084E+01 -1.12371666E+01 -1.12366627E+01
 -1.12365207E+01 -1.03991086E+00 -1.01166775E+00 -1.01143725E+00 -7.94619669E-01
 -7.94378236E-01 -7.20937091E-01 -7.04104402E-01 -6.50832881E-01 -6.49722176E-01
 -4.77334577E-01 -4.21153513E-01 -3.85452504E-01 -3.85116448E-01 -3.47636301E-01
 -3.47482917E-01  4.25424790E-02  4.38495648E-02  4.43021477E-02  6.48178661E-02
  6.51541801E-02  8.56408162E-02  1.06426426E-01  1.09050488E-01  1.18729567E-01
  1.26624897E-01  1.37917814E-01  1.46627397E-01  1.62880228E-01  1.64761229E-01
  1.77363709E-01  1.78502582E-01  1.79377413E-01  1.86076575E-01  1.96045790E-01
  1.96625959E-01  1.98814367E-01  2.06768881E-01  2.19390984E-01  2.20818471E-01
  2.26172751E-01  2.26612230E-01  2.42217150E-01  2.44646225E-01  2.51418915E-01
  2.54218012E-01  2.77528839E-01  2.78828736E-01  2.81652148E-01  2.88853921E-01
  3.13457962E-01  3.39522827E-01  3.56298401E-01  3.58733920E-01  3.63011579E-01
  4.26362451E-01  4.37374129E-01  4.55759064E-01  5.46081801E-01  5.53165049E-01
  5.65661090E-01  6.04620327E-01  6.65080772E-01  6.73518613E-01  6.77676545E-01
  6.92230277E-01  7.45987554E-01  7.48293654E-01  7.88196845E-01  8.00906921E-01
  8.29311802E-01  8.29831796E-01  8.49281499E-01  8.75407280E-01  8.76294403E-01
  8.86398422E-01  9.10193343E-01  9.59470999E-01  9.63599522E-01  9.69080614E-01
  1.01628357E+00  1.01709288E+00  1.02424908E+00  1.07979177E+00  1.08137053E+00
  1.12270847E+00  1.15262289E+00  1.22226473E+00  1.26385308E+00  1.27239221E+00
  1.29454220E+00  1.29651405E+00  1.30950152E+00  1.38437474E+00  1.39815798E+00
  1.45687969E+00  1.45834363E+00  1.47245085E+00  1.48805491E+00  1.49214052E+00
  1.51043507E+00  1.62365794E+00  1.63378870E+00  1.65081272E+00  1.65565271E+00
  1.72176826E+00  1.89318117E+00  1.90782832E+00  1.91286975E+00  1.91630617E+00
  1.92118648E+00  1.92797625E+00  1.96005046E+00  1.97229483E+00  1.98554138E+00
  2.01805826E+00  2.03124439E+00  2.08334844E+00  2.10386513E+00  2.12169220E+00
  2.12318596E+00  2.23920192E+00  2.32256954E+00  2.32462124E+00  2.41029698E+00
  2.41808013E+00  2.47068719E+00  2.72051073E+00  2.75072579E+00  2.76197771E+00
  2.76802103E+00  2.78001870E+00  2.84133219E+00  2.91513928E+00  2.95779587E+00
  2.96420340E+00  3.05600820E+00  3.07132265E+00  3.08539643E+00  3.11795003E+00
  3.12163862E+00  3.15549162E+00  3.15722306E+00  3.18554048E+00  3.19060743E+00
  3.31155788E+00  3.34534415E+00  3.35838313E+00  3.38227995E+00  3.41159350E+00
  3.42662515E+00  3.43644593E+00  3.47814590E+00  3.48575270E+00  3.57485492E+00
  3.60582543E+00  3.77444880E+00  3.78668345E+00  3.83118838E+00  3.83483829E+00
  4.28400954E+00  4.31994450E+00  4.36175642E+00  2.46991243E+01  2.47616897E+01
  2.47642808E+01  2.61052951E+01  2.61346961E+01  2.61689334E+01
Alpha MO coefficients                      R   N=       30276
  3.77956799E-01  3.12992133E-01 -5.62918000E-05 -2.56926049E-04 -1.09410630E-04
  2.84013068E-03 -6.41235333E-05  3.55484361E-04  5.72147423E-05  4.46816641E-04
 -2.31266495E-04 -1.71721964E-04 -7.90924288E-05 -8.24689558E-04  8.02181321E-04
  2.33838476E-04  1.68950379E-04 -4.28883066E-04  1.85625089E-04  2.46837727E-05
  6.19252429E-04  3.42573183E-04  4.17397158E-01  3.45651706E-01  2.80609860E-04
 -1.83811241E-04  1.17792698E-04  3.21045444E-03 -3.57738282E-04  2.84168089E-04
 -5.35592807E-05  5.24373889E-04  3.59366460E-04 -5.50913258E-06  8.04770030E-05
 -1.30933434E-03 -7.61617906E-04 -1.97933346E-04 -1.68183838E-04 -4.98489853E-04
  1.69014143E-04  1.04613501E-04  5.48055809E-04  6.23944169E-04  1.62259308E-03
  1.34745664E-03 -8.32961175E-06  8.53826849E-06  5.90621728E-07  7.70621292E-07
  2.27332762E-06 -5.38175925E-05 -1.29665567E-06  3.01447940E-04 -6.16229822E-05
 -3.99468830E-04 -1.10408024E-05  9.64080562E-05 -7.88749705E-05  2.95972906E-04
  2.36735324E-05  2.53069034E-06  1.77451813E-06 -1.07546675E-07 -3.89764525E-06
 -1.33953212E-06  1.42568912E-03  1.18427913E-03  9.04225655E-07  1.00902164E-05
 -5.60272800E-07 -4.40988148E-06  2.95959720E-05 -3.82383698E-05  1.46880656E-06
  3.72212789E-04  3.41636852E-04 -2.75826909E-04  1.77061254E-05  2.92783381E-04
 -6.09201098E-05  1.65830037E-04 -2.37139281E-05  2.95034736E-07  3.38044814E-07
  1.51593546E-06 -1.91117977E-06 -3.48935771E-06  3.76178234E-04  3.11964495E-04
  4.96821955E-06  4.31945392E-06 -3.38521839E-08  8.95678862E-06 -5.99222937E-06
 -3.79041586E-05 -1.64217661E-07 -4.69820888E-04 -1.83208788E-05 -2.71946415E-04
 -6.79444083E-06  3.64848173E-04  7.53541786E-05  4.20507894E-06 -9.07227087E-06
  6.30023976E-06 -2.39984422E-07  5.57536909E-07  4.83829112E-06 -5.85912738E-06
  9.60345218E-05  7.98517316E-05 -7.09957988E-06  1.67477022E-07 -1.18271805E-07
  8.56659412E-06  2.90058659E-05 -2.60000525E-05  8.82129375E-07 -5.24862126E-04
  2.10903019E-04 -2.27877140E-04  9.79064425E-06  7.47426276E-05  3.34185775E-05
 -1.13373232E-04  1.52021001E-05  6.77241189E-06  2.54657845E-07 -8.20012704E-07
 -4.36758949E-06  6.48512229E-06  1.62971288E-04 -9.20639730E-04  5.49237634E-04
  5.17988783E-04  2.42591378E-04  2.84255084E-04  7.05154380E-05  1.48722039E-04
 -8.75636887E-04  5.47029989E-04  5.20044714E-04 -3.49166636E-04  6.44317786E-05
 -6.11063618E-05 -1.54311527E-05  1.07887579E-04  9.34335266E-05 -3.67756958E-05
  1.41912177E-05 -8.19230421E-06 -3.50075780E-07 -1.60477537E-05  1.11278578E-04
  6.29514809E-05 -6.86171311E-05 -6.85130736E-06 -1.65463725E-05  2.04658507E-06
  5.62924002E-06 -4.93812409E-05 -8.98796813E-05 -7.55568108E-05 -1.95854556E-06
 -9.29577522E-06  1.38308209E-06  5.51750252E-06 -4.62562107E-05 -7.47222711E-05
 -3.79847509E-05  7.59362508E-06 -6.19417512E-06 -2.80759005E-07 -1.79111631E-03
 -1.48248915E-03  3.85624550E-06  6.99800436E-06  8.93196541E-07 -1.01398819E-05
 -3.26512031E-05 -1.15808895E-05 -1.46222224E-06 -3.60607335E-04 -1.70609210E-04
 -3.63763878E-05 -5.48694159E-07  1.12696155E-03  1.86051963E-04  1.00471474E-04
 -5.90883699E-06  9.40781327E-06 -1.41898276E-08  4.57423914E-08 -7.31759471E-06
 -7.32659774E-06 -1.93275329E-04 -1.56928109E-04  6.72745616E-06 -4.17941152E-06
 -3.30106391E-07 -1.22105918E-05 -4.23542398E-05 -9.04554737E-06 -7.08036711E-07
  2.15311535E-04 -2.81691547E-04 -8.97168775E-05 -1.49918314E-05 -7.31699418E-04
  4.87901732E-04  1.22698838E-04  1.95219041E-05  1.50425247E-06 -3.03114550E-06
 -2.64082820E-06  3.16761972E-07 -1.53206685E-06  3.65133601E-01  3.02375008E-01
 -1.96799761E-04  1.62011064E-04  1.56741943E-05  2.71892029E-03  3.57589302E-04
 -6.06398046E-05 -2.01191288E-05  5.04073239E-04 -6.73559112E-05  1.60376685E-04
  2.12016557E-06  4.92832629E-04 -3.38685498E-04 -1.23438655E-03 -9.19829197E-06
 -4.18811743E-04  1.84953842E-06  1.95408672E-05 -5.79272244E-04  3.49843061E-04
  2.65481969E-03  2.19871844E-03  1.06616161E-06 -4.57934040E-06  2.24652748E-08
  2.88129503E-05 -2.89812603E-05  2.19540664E-05 -9.49812093E-07 -5.39751315E-04
 -2.82834287E-04  1.95325163E-04 -1.00158952E-05 -4.40591082E-04 -2.44734318E-04
  6.13083445E-05 -3.88615510E-06  4.05126660E-06 -2.06571461E-08  1.64430360E-07
  4.02724496E-06  3.41496132E-06  4.28631996E-01  3.54954710E-01 -3.27785133E-04
 -1.79952270E-04  2.17710394E-05  3.33316327E-03  4.57603529E-04  2.26460097E-04
 -2.28327421E-05  4.27284573E-04 -2.05332598E-04 -4.06917701E-04  3.99844651E-06
 -2.66403552E-03  2.09814116E-04  3.72673253E-04 -5.43268169E-06 -5.36105704E-04
  4.26680475E-06  4.66524428E-05 -8.65143655E-04  1.59580355E-04  3.85042928E-03
  3.19225432E-03  1.34017632E-05  3.31873898E-06 -2.94925448E-07  1.86503778E-05
 -4.96697992E-05  2.42870162E-05 -8.87005855E-07  3.79361913E-04 -3.59749666E-04
  2.91748229E-04 -1.55548079E-05  8.93946525E-04  1.31086854E-04  1.21915466E-04
 -9.60290746E-06  9.78646921E-08  5.82475099E-07  1.08238679E-06  1.90742652E-06
 -8.06964217E-06 -1.37287964E-05  8.57767762E-05  2.93679799E-05 -1.21749007E-04