 Entering Gaussian System, Link 0=g09
 Initial command:
 /apps/software//g09/l1.exe /scratch/itamar/2672.cluster.abaxnet/Gau-15921.inp -scrdir=/scratch/itamar/2672.cluster.abaxnet/
 Entering Link 1 = /apps/software//g09/l1.exe PID=     15922.
  
 Copyright (c) 1988,1990,1992,1993,1995,1998,2003,2009, Gaussian, Inc.
                  All Rights Reserved.
  
 This is part of the Gaussian(R) 09 program.  It is based on
 the Gaussian(R) 03 system (copyright 2003, Gaussian, Inc.),
 the Gaussian(R) 98 system (copyright 1998, Gaussian, Inc.),
 the Gaussian(R) 94 system (copyright 1995, Gaussian, Inc.),
 the Gaussian 92(TM) system (copyright 1992, Gaussian, Inc.),
 the Gaussian 90(TM) system (copyright 1990, Gaussian, Inc.),
 the Gaussian 88(TM) system (copyright 1988, Gaussian, Inc.),
 the Gaussian 86(TM) system (copyright 1986, Carnegie Mellon
 University), and the Gaussian 82(TM) system (copyright 1983,
 Carnegie Mellon University). Gaussian is a federally registered
 trademark of Gaussian, Inc.
  
 This software contains proprietary and confidential information,
 including trade secrets, belonging to Gaussian, Inc.
  
 This software is provided under written license and may be
 used, copied, transmitted, or stored only in accord with that
 written license.
  
 The following legend is applicable only to US Government
 contracts under FAR:
  
                    RESTRICTED RIGHTS LEGEND
  
 Use, reproduction and disclosure by the US Government is
 subject to restrictions as set forth in subparagraphs (a)
 and (c) of the Commercial Computer Software - Restricted
 Rights clause in FAR 52.227-19.
  
 Gaussian, Inc.
 340 Quinnipiac St., Bldg. 40, Wallingford CT 06492
  
  
 ---------------------------------------------------------------
 Warning -- This program may not be used in any manner that
 competes with the business of Gaussian, Inc. or will provide
 assistance to any competitor of Gaussian, Inc.  The licensee
 of this program is prohibited from giving any competitor of
 Gaussian, Inc. access to this program.  By using this program,
 the user acknowledges that Gaussian, Inc. is engaged in the
 business of creating and licensing software in the field of
 computational chemistry and represents and warrants to the
 licensee that it is not a competitor of Gaussian, Inc. and that
 it will not use this program in any manner prohibited above.
 ---------------------------------------------------------------
  

 Cite this work as:
 Gaussian 09, Revision A.02,
 M. J. Frisch, G. W. Trucks, H. B. Schlegel, G. E. Scuseria, 
 M. A. Robb, J. R. Cheeseman, G. Scalmani, V. Barone, B. Mennucci, 
 G. A. Petersson, H. Nakatsuji, M. Caricato, X. Li, H. P. Hratchian, 
 A. F. Izmaylov, J. Bloino, G. Zheng, J. L. Sonnenberg, M. Hada, 
 M. Ehara, K. Toyota, R. Fukuda, J. Hasegawa, M. Ishida, T. Nakajima, 
 Y. Honda, O. Kitao, H. Nakai, T. Vreven, J. A. Montgomery, Jr., 
 J. E. Peralta, F. Ogliaro, M. Bearpark, J. J. Heyd, E. Brothers, 
 K. N. Kudin, V. N. Staroverov, R. Kobayashi, J. Normand, 
 K. Raghavachari, A. Rendell, J. C. Burant, S. S. Iyengar, J. Tomasi, 
 M. Cossi, N. Rega, J. M. Millam, M. Klene, J. E. Knox, J. B. Cross, 
 V. Bakken, C. Adamo, J. Jaramillo, R. Gomperts, R. E. Stratmann, 
 O. Yazyev, A. J. Austin, R. Cammi, C. Pomelli, J. W. Ochterski, 
 R. L. Martin, K. Morokuma, V. G. Zakrzewski, G. A. Voth, 
 P. Salvador, J. J. Dannenberg, S. Dapprich, A. D. Daniels, 
 O. Farkas, J. B. Foresman, J. V. Ortiz, J. Cioslowski, 
 and D. J. Fox, Gaussian, Inc., Wallingford CT, 2009.
 
 ******************************************
 Gaussian 09:  EM64L-G09RevA.02 11-Jun-2009
                 7-Dec-2021 
 ******************************************
 %Mem=3800MB
 %NProcShared=6
 Will use up to    6 processors via shared memory.
 %chk=/home/itamar/Aromaticity-test-set/T14-old-T15-Acetylene-Trimerization/IRC/a
 t-ts.chk
 ------------------------------------------------------
 #P MP2/6-311++G** DENSITY=MP2 IRC=(CalcFC,MaxCycle=50)
 ------------------------------------------------------
 1/6=50,10=4,18=20,38=1,44=3/1,23;
 2/9=110,12=2,17=6,18=5,29=1,40=1/2;
 3/5=4,6=6,7=1111,11=9,16=1,25=1,30=1,71=2/1,2,3;
 4//1;
 5/5=2,38=5/2;
 8/6=3,8=1,10=2,19=11,30=-1/1;
 9/15=3,16=-3/6;
 11/6=1,8=1,15=11,17=12,24=-1,27=1,28=-2,29=300,32=6,42=3/1,2,10;
 10/6=2,21=1/2;
 8/6=4,8=1,10=2,19=11,30=-1/11,4;
 10/5=1,20=4/2;
 11/12=2,14=11,16=1,17=2,28=-2,42=3/2,10,12;
 6/7=2,8=2,9=2,10=2,22=2/1;
 7/10=1,12=2,25=1,44=2/1,2,3,16;
 1/6=50,10=4,18=20,44=3/23(3);
 2/9=110,29=1/2;
 7/9=1,25=1,44=-1/16;
 99//99;
 2/9=110,29=1/2;
 3/5=4,6=6,7=1111,11=9,16=1,25=1,30=1,71=2/1,2,3;
 4/5=5,16=3/1;
 5/5=2,38=5/2;
 8/6=3,8=1,10=2,19=11,30=-1/1;
 9/15=3,16=-3/6;
 11/6=1,8=1,15=11,17=12,24=-1,27=1,28=-2,29=300,32=6,42=3/1,2,10;
 10/6=2,21=1/2;
 8/6=4,8=1,10=2,19=11,30=-1/11,4;
 10/5=1,20=4/2;
 11/12=2,14=11,16=1,17=2,28=-2,42=3/2,10,12;
 7/10=1,12=2,25=1,44=2/1,2,3,16;
 1/6=50,18=20,44=3/23(-12);
 2/9=110,29=1/2;
 6/7=2,8=2,9=2,10=2,22=2/1;
 7/9=1,25=1,44=-1/16;
 99//99;
 Leave Link    1 at Tue Dec  7 12:51:03 2021, MaxMem=  498073600 cpu:       0.1
 (Enter /apps/software//g09/l101.exe)
 -----------------------
 Acetylene trimerization
 -----------------------
 Symbolic Z-matrix:
 Charge =  0 Multiplicity = 1
 6                    -1.15175   1.36656   0. 
 6                     0.        1.7871    0. 
 6                     1.75949   0.31423   0. 
 6                    -1.54791  -0.89351   0. 
 6                     1.54835  -0.89352   0. 
 6                    -0.60811  -1.68095   0. 
 1                     0.72977   2.56116   0. 
 1                    -2.20861   1.48806   0. 
 1                    -2.58305  -0.64821   0. 
 1                     2.39281   1.16897   0. 
 1                    -0.18426  -2.65665   0. 
 1                     1.85295  -1.91276   0. 
 
 NAtoms=     12 NQM=     12 NQMF=      0 NMic=      0 NMicF=      0 NTot=     12.
                    Isotopes and Nuclear Properties:
 (Nuclear quadrupole moments (NQMom) in fm**2, nuclear magnetic moments (NMagM)
  in nuclear magnetons)

  Atom         1           2           3           4           5           6           7           8           9          10
 IAtWgt=          12          12          12          12          12          12           1           1           1           1
 AtmWgt=  12.0000000  12.0000000  12.0000000  12.0000000  12.0000000  12.0000000   1.0078250   1.0078250   1.0078250   1.0078250
 NucSpn=           0           0           0           0           0           0           1           1           1           1
 AtZEff=   0.0000000   0.0000000   0.0000000   0.0000000   0.0000000   0.0000000   0.0000000   0.0000000   0.0000000   0.0000000
 NQMom=    0.0000000   0.0000000   0.0000000   0.0000000   0.0000000   0.0000000   0.0000000   0.0000000   0.0000000   0.0000000
 NMagM=    0.0000000   0.0000000   0.0000000   0.0000000   0.0000000   0.0000000   2.7928460   2.7928460   2.7928460   2.7928460

  Atom        11          12
 IAtWgt=           1           1
 AtmWgt=   1.0078250   1.0078250
 NucSpn=           1           1
 AtZEff=   0.0000000   0.0000000
 NQMom=    0.0000000   0.0000000
 NMagM=    2.7928460   2.7928460
 Leave Link  101 at Tue Dec  7 12:51:03 2021, MaxMem=  498073600 cpu:       0.1
 (Enter /apps/software//g09/l123.exe)
 IRC-IRC-IRC-IRC-IRC-IRC-IRC-IRC-IRC-IRC-IRC-IRC-IRC-IRC-IRC-IRC-IRC-IRC
 ------------------------------------------------------------------------
 INPUT DATA FOR L123
 ------------------------------------------------------------------------
 GENERAL PARAMETERS:
 Follow reaction path in both directions.
 Maximum points per path      =  10
 Step size                    =   0.100 bohr
 Integration scheme           = HPC                                 
    Redo corrector integration= Yes                                 
    Max correction cycles     =  50
 Initial Hessian              = CalcFC
 Hessian eveluation           = All updating
    Hessian updating method   = Bofill                              
 ------------------------------------------------------------------------
 IRC-IRC-IRC-IRC-IRC-IRC-IRC-IRC-IRC-IRC-IRC-IRC-IRC-IRC-IRC-IRC-IRC-IRC
 Leave Link  123 at Tue Dec  7 12:51:03 2021, MaxMem=  498073600 cpu:       0.0
 (Enter /apps/software//g09/l202.exe)
                          Input orientation:                          
 ---------------------------------------------------------------------
 Center     Atomic      Atomic             Coordinates (Angstroms)
 Number     Number       Type             X           Y           Z
 ---------------------------------------------------------------------
      1          6           0       -1.151754    1.366558    0.000000
      2          6           0        0.000000    1.787096    0.000000
      3          6           0        1.759490    0.314231    0.000000
      4          6           0       -1.547911   -0.893513    0.000000
      5          6           0        1.548345   -0.893519    0.000000
      6          6           0       -0.608105   -1.680949    0.000000
      7          1           0        0.729765    2.561162    0.000000
      8          1           0       -2.208608    1.488055    0.000000
      9          1           0       -2.583048   -0.648206    0.000000
     10          1           0        2.392812    1.168973    0.000000
     11          1           0       -0.184259   -2.656652    0.000000
     12          1           0        1.852950   -1.912756    0.000000
 ---------------------------------------------------------------------
                    Distance matrix (angstroms):
                    1          2          3          4          5
     1  C    0.000000
     2  C    1.226128   0.000000
     3  C    3.095599   2.294588   0.000000
     4  C    2.294529   3.095431   3.521015   0.000000
     5  C    3.521148   3.095653   1.226068   3.096256   0.000000
     6  C    3.095618   3.520956   3.096167   1.226088   2.295718
     7  H    2.228720   1.063830   2.471646   4.137945   3.550337
     8  H    1.063815   2.228761   4.138075   2.471515   4.448212
     9  H    2.471412   3.550047   4.447912   1.063806   4.138670
    10  H    3.550069   2.471361   1.063805   4.447825   2.228676
    11  H    4.137906   4.447566   3.550254   2.228947   2.471954
    12  H    4.447712   4.137914   2.228947   3.550312   1.063780
                    6          7          8          9         10
     6  C    0.000000
     7  H    4.448078   0.000000
     8  H    3.550239   3.128193   0.000000
     9  H    2.228667   4.612458   2.168828   0.000000
    10  H    4.138545   2.168851   4.612470   5.297294   0.000000
    11  H    1.063787   5.297266   4.612655   3.128585   4.612668
    12  H    2.471948   4.612753   5.297336   4.612718   3.128659
                   11         12
    11  H    0.000000
    12  H    2.168779   0.000000
 Symmetry turned off by external request.
 Stoichiometry    C6H6
 Framework group  CS[SG(C6H6)]
 Deg. of freedom    21
 Full point group                 CS      NOp   2
 Rotational constants (GHZ):      3.7043387      3.7032198      1.8518896
 Leave Link  202 at Tue Dec  7 12:51:03 2021, MaxMem=  498073600 cpu:       0.1
 (Enter /apps/software//g09/l301.exe)
 Standard basis: 6-311++G(d,p) (5D, 7F)
 Ernie: Thresh=  0.10000D-02 Tol=  0.10000D-05 Strict=F.
 Integral buffers will be    131072 words long.
 Raffenetti 1 integral format.
 Two-electron integral symmetry is turned off.
   174 basis functions,   270 primitive gaussians,   180 cartesian basis functions
    21 alpha electrons       21 beta electrons
       nuclear repulsion energy       175.3114388694 Hartrees.
 IExCor=    0 DFT=F Ex=HF Corr=None ExCW=0 ScaHFX=  1.000000
 ScaDFX=  1.000000  1.000000  1.000000  1.000000 ScalE2=  1.000000  1.000000
 IRadAn=      0 IRanWt=     -1 IRanGd=            0 ICorTp=0
 NAtoms=   12 NActive=   12 NUniq=   12 SFac= 7.50D-01 NAtFMM=   80 NAOKFM=F Big=F
 Leave Link  301 at Tue Dec  7 12:51:03 2021, MaxMem=  498073600 cpu:       0.1
 (Enter /apps/software//g09/l302.exe)
 NPDir=0 NMtPBC=     1 NCelOv=     1 NCel=       1 NClECP=     1 NCelD=      1
         NCelK=      1 NCelE2=     1 NClLst=     1 CellRange=     0.0.
 One-electron integrals computed using PRISM.
 NBasis=   174 RedAO= T  NBF=   174
 NBsUse=   174 1.00D-06 NBFU=   174
 Leave Link  302 at Tue Dec  7 12:51:04 2021, MaxMem=  498073600 cpu:       0.9
 (Enter /apps/software//g09/l303.exe)
 DipDrv:  MaxL=1.
 Leave Link  303 at Tue Dec  7 12:51:04 2021, MaxMem=  498073600 cpu:       0.3
 (Enter /apps/software//g09/l401.exe)
 Harris functional with IExCor=  205 diagonalized for initial guess.
 ExpMin= 3.60D-02 ExpMax= 4.56D+03 ExpMxC= 6.82D+02 IAcc=3 IRadAn=         0 AccDes= 0.00D+00
 HarFok:  IExCor=  205 AccDes= 0.00D+00 IRadAn=         0 IDoV= 1
 ScaDFX=  1.000000  1.000000  1.000000  1.000000
 FoFCou: FMM=F IPFlag=           0 FMFlag=      100000 FMFlg1=           0
         NFxFlg=           0 DoJE=T BraDBF=F KetDBF=T FulRan=T
         Omega=  0.000000  0.000000  1.000000  0.000000  0.000000 ICntrl=     500 IOpCl=  0
         NMat0=    1 NMatS0=    1 NMatT0=    0 NMatD0=    1 NMtDS0=    0 NMtDT0=    0
         I1Cent=           4 NGrid=           0.
 Symmetry not used in FoFCou.
 Harris En= -230.864550164808    
 Leave Link  401 at Tue Dec  7 12:51:04 2021, MaxMem=  498073600 cpu:       2.3
 (Enter /apps/software//g09/l502.exe)
 Closed shell SCF:
 Requested convergence on RMS density matrix=1.00D-08 within 128 cycles.
 Requested convergence on MAX density matrix=1.00D-06.
 Requested convergence on             energy=1.00D-06.
 No special actions if energy rises.
 Using DIIS extrapolation, IDIIS=  1040.
 Two-electron integral symmetry not used.
 Keep R1 ints in memory in canonical form, NReq=135772519.
 IEnd=      117530 IEndB=      117530 NGot=   498073600 MDV=   365315068
 LenX=   365315068 LenY=   365282227
 Symmetry not used in FoFDir.
 MinBra= 0 MaxBra= 2 Meth= 1.
 IRaf=       0 NMat=   1 IRICut=       1 DoRegI=T DoRafI=F ISym2E= 0 JSym2E=0.

 Cycle   1  Pass 1  IDiag  1:
 E= -230.058175150804    
 DIIS: error= 6.44D-02 at cycle   1 NSaved=   1.
 NSaved= 1 IEnMin= 1 EnMin= -230.058175150804     IErMin= 1 ErrMin= 6.44D-02
 ErrMax= 6.44D-02 EMaxC= 1.00D-01 BMatC= 5.44D-01 BMatP= 5.44D-01
 IDIUse=3 WtCom= 3.56D-01 WtEn= 6.44D-01
 Coeff-Com:  0.100D+01
 Coeff-En:   0.100D+01
 Coeff:      0.100D+01
 Gap=     0.456 Goal=   None    Shift=    0.000
 GapD=    0.456 DampG=2.000 DampE=0.500 DampFc=1.0000 IDamp=-1.
 RMSDP=9.29D-03 MaxDP=2.58D-01              OVMax= 1.40D-01

 Cycle   2  Pass 1  IDiag  1:
 E= -230.354713777040     Delta-E=       -0.296538626236 Rises=F Damp=F
 DIIS: error= 1.88D-02 at cycle   2 NSaved=   2.
 NSaved= 2 IEnMin= 2 EnMin= -230.354713777040     IErMin= 2 ErrMin= 1.88D-02
 ErrMax= 1.88D-02 EMaxC= 1.00D-01 BMatC= 4.10D-02 BMatP= 5.44D-01
 IDIUse=3 WtCom= 8.12D-01 WtEn= 1.88D-01
 Coeff-Com:  0.147D+00 0.853D+00
 Coeff-En:   0.000D+00 0.100D+01
 Coeff:      0.119D+00 0.881D+00
 Gap=     0.410 Goal=   None    Shift=    0.000
 RMSDP=1.12D-02 MaxDP=3.51D-01 DE=-2.97D-01 OVMax= 5.04D-02

 Cycle   3  Pass 1  IDiag  1:
 E= -230.391347881701     Delta-E=       -0.036634104661 Rises=F Damp=F
 DIIS: error= 4.78D-03 at cycle   3 NSaved=   3.
 NSaved= 3 IEnMin= 3 EnMin= -230.391347881701     IErMin= 3 ErrMin= 4.78D-03
 ErrMax= 4.78D-03 EMaxC= 1.00D-01 BMatC= 2.24D-03 BMatP= 4.10D-02
 IDIUse=3 WtCom= 9.52D-01 WtEn= 4.78D-02
 Coeff-Com: -0.167D-01 0.155D+00 0.861D+00
 Coeff-En:   0.000D+00 0.000D+00 0.100D+01
 Coeff:     -0.159D-01 0.148D+00 0.868D+00
 Gap=     0.379 Goal=   None    Shift=    0.000
 RMSDP=1.09D-03 MaxDP=3.60D-02 DE=-3.66D-02 OVMax= 9.47D-03

 Cycle   4  Pass 1  IDiag  1:
 E= -230.393646264630     Delta-E=       -0.002298382929 Rises=F Damp=F
 DIIS: error= 6.65D-04 at cycle   4 NSaved=   4.
 NSaved= 4 IEnMin= 4 EnMin= -230.393646264630     IErMin= 4 ErrMin= 6.65D-04
 ErrMax= 6.65D-04 EMaxC= 1.00D-01 BMatC= 2.05D-05 BMatP= 2.24D-03
 IDIUse=3 WtCom= 9.93D-01 WtEn= 6.65D-03
 Coeff-Com: -0.229D-02 0.178D-02 0.589D-01 0.942D+00
 Coeff-En:   0.000D+00 0.000D+00 0.000D+00 0.100D+01
 Coeff:     -0.227D-02 0.177D-02 0.585D-01 0.942D+00
 Gap=     0.380 Goal=   None    Shift=    0.000
 RMSDP=3.03D-04 MaxDP=7.92D-03 DE=-2.30D-03 OVMax= 2.79D-03

 Cycle   5  Pass 1  IDiag  1:
 E= -230.393694272951     Delta-E=       -0.000048008321 Rises=F Damp=F
 DIIS: error= 3.04D-04 at cycle   5 NSaved=   5.
 NSaved= 5 IEnMin= 5 EnMin= -230.393694272951     IErMin= 5 ErrMin= 3.04D-04
 ErrMax= 3.04D-04 EMaxC= 1.00D-01 BMatC= 3.08D-06 BMatP= 2.05D-05
 IDIUse=3 WtCom= 9.97D-01 WtEn= 3.04D-03
 Coeff-Com:  0.144D-02-0.945D-02-0.683D-01-0.223D+00 0.130D+01
 Coeff-En:   0.000D+00 0.000D+00 0.000D+00 0.000D+00 0.100D+01
 Coeff:      0.143D-02-0.943D-02-0.680D-01-0.222D+00 0.130D+01
 Gap=     0.380 Goal=   None    Shift=    0.000
 RMSDP=8.54D-05 MaxDP=2.46D-03 DE=-4.80D-05 OVMax= 2.51D-03

 Cycle   6  Pass 1  IDiag  1:
 E= -230.393710451419     Delta-E=       -0.000016178468 Rises=F Damp=F
 DIIS: error= 1.29D-04 at cycle   6 NSaved=   6.
 NSaved= 6 IEnMin= 6 EnMin= -230.393710451419     IErMin= 6 ErrMin= 1.29D-04
 ErrMax= 1.29D-04 EMaxC= 1.00D-01 BMatC= 4.77D-07 BMatP= 3.08D-06
 IDIUse=3 WtCom= 9.99D-01 WtEn= 1.29D-03
 Coeff-Com: -0.496D-03 0.496D-02 0.277D-01 0.454D-02-0.616D+00 0.158D+01
 Coeff-En:   0.000D+00 0.000D+00 0.000D+00 0.000D+00 0.000D+00 0.100D+01
 Coeff:     -0.495D-03 0.496D-02 0.276D-01 0.454D-02-0.615D+00 0.158D+01
 Gap=     0.381 Goal=   None    Shift=    0.000
 RMSDP=3.09D-05 MaxDP=6.92D-04 DE=-1.62D-05 OVMax= 1.61D-03

 Cycle   7  Pass 1  IDiag  1:
 E= -230.393714116269     Delta-E=       -0.000003664850 Rises=F Damp=F
 DIIS: error= 4.13D-05 at cycle   7 NSaved=   7.
 NSaved= 7 IEnMin= 7 EnMin= -230.393714116269     IErMin= 7 ErrMin= 4.13D-05
 ErrMax= 4.13D-05 EMaxC= 1.00D-01 BMatC= 6.04D-08 BMatP= 4.77D-07
 IDIUse=1 WtCom= 1.00D+00 WtEn= 0.00D+00
 Coeff-Com: -0.139D-03 0.115D-02 0.611D-02 0.152D-01-0.102D+00-0.697D-01
 Coeff-Com:  0.115D+01
 Coeff:     -0.139D-03 0.115D-02 0.611D-02 0.152D-01-0.102D+00-0.697D-01
 Coeff:      0.115D+01
 Gap=     0.381 Goal=   None    Shift=    0.000
 RMSDP=1.75D-05 MaxDP=4.59D-04 DE=-3.66D-06 OVMax= 5.24D-04

 Cycle   8  Pass 1  IDiag  1:
 E= -230.393714442578     Delta-E=       -0.000000326309 Rises=F Damp=F
 DIIS: error= 1.96D-05 at cycle   8 NSaved=   8.
 NSaved= 8 IEnMin= 8 EnMin= -230.393714442578     IErMin= 8 ErrMin= 1.96D-05
 ErrMax= 1.96D-05 EMaxC= 1.00D-01 BMatC= 2.41D-08 BMatP= 6.04D-08
 IDIUse=1 WtCom= 1.00D+00 WtEn= 0.00D+00
 Coeff-Com:  0.485D-04-0.547D-03-0.365D-02 0.325D-02 0.102D+00-0.406D+00
 Coeff-Com:  0.550D+00 0.754D+00
 Coeff:      0.485D-04-0.547D-03-0.365D-02 0.325D-02 0.102D+00-0.406D+00
 Coeff:      0.550D+00 0.754D+00
 Gap=     0.381 Goal=   None    Shift=    0.000
 RMSDP=7.52D-06 MaxDP=2.65D-04 DE=-3.26D-07 OVMax= 1.99D-04

 Cycle   9  Pass 1  IDiag  1:
 E= -230.393714497757     Delta-E=       -0.000000055178 Rises=F Damp=F
 DIIS: error= 3.38D-06 at cycle   9 NSaved=   9.
 NSaved= 9 IEnMin= 9 EnMin= -230.393714497757     IErMin= 9 ErrMin= 3.38D-06
 ErrMax= 3.38D-06 EMaxC= 1.00D-01 BMatC= 6.20D-10 BMatP= 2.41D-08
 IDIUse=1 WtCom= 1.00D+00 WtEn= 0.00D+00
 Coeff-Com:  0.619D-05-0.364D-04-0.134D-03-0.378D-02 0.844D-03 0.658D-01
 Coeff-Com: -0.215D+00-0.137D+00 0.129D+01
 Coeff:      0.619D-05-0.364D-04-0.134D-03-0.378D-02 0.844D-03 0.658D-01
 Coeff:     -0.215D+00-0.137D+00 0.129D+01
 Gap=     0.381 Goal=   None    Shift=    0.000
 RMSDP=2.51D-06 MaxDP=9.54D-05 DE=-5.52D-08 OVMax= 4.54D-05

 Cycle  10  Pass 1  IDiag  1:
 E= -230.393714500550     Delta-E=       -0.000000002793 Rises=F Damp=F
 DIIS: error= 4.90D-07 at cycle  10 NSaved=  10.
 NSaved=10 IEnMin=10 EnMin= -230.393714500550     IErMin=10 ErrMin= 4.90D-07
 ErrMax= 4.90D-07 EMaxC= 1.00D-01 BMatC= 1.15D-11 BMatP= 6.20D-10
 IDIUse=1 WtCom= 1.00D+00 WtEn= 0.00D+00
 Coeff-Com: -0.239D-05 0.276D-04 0.162D-03 0.399D-03-0.340D-02 0.182D-02
 Coeff-Com:  0.217D-01-0.526D-03-0.247D+00 0.123D+01
 Coeff:     -0.239D-05 0.276D-04 0.162D-03 0.399D-03-0.340D-02 0.182D-02
 Coeff:      0.217D-01-0.526D-03-0.247D+00 0.123D+01
 Gap=     0.381 Goal=   None    Shift=    0.000
 RMSDP=2.01D-07 MaxDP=5.26D-06 DE=-2.79D-09 OVMax= 4.05D-06

 Cycle  11  Pass 1  IDiag  1:
 E= -230.393714500592     Delta-E=       -0.000000000042 Rises=F Damp=F
 DIIS: error= 6.03D-08 at cycle  11 NSaved=  11.
 NSaved=11 IEnMin=11 EnMin= -230.393714500592     IErMin=11 ErrMin= 6.03D-08
 ErrMax= 6.03D-08 EMaxC= 1.00D-01 BMatC= 2.56D-13 BMatP= 1.15D-11
 IDIUse=1 WtCom= 1.00D+00 WtEn= 0.00D+00
 Coeff-Com:  0.247D-06-0.407D-05-0.263D-04-0.196D-04 0.631D-03-0.130D-02
 Coeff-Com: -0.125D-02 0.223D-02 0.322D-01-0.288D+00 0.126D+01
 Coeff:      0.247D-06-0.407D-05-0.263D-04-0.196D-04 0.631D-03-0.130D-02
 Coeff:     -0.125D-02 0.223D-02 0.322D-01-0.288D+00 0.126D+01
 Gap=     0.381 Goal=   None    Shift=    0.000
 RMSDP=5.02D-08 MaxDP=1.15D-06 DE=-4.18D-11 OVMax= 4.38D-07

 Cycle  12  Pass 1  IDiag  1:
 E= -230.393714500594     Delta-E=       -0.000000000003 Rises=F Damp=F
 DIIS: error= 2.04D-08 at cycle  12 NSaved=  12.
 NSaved=12 IEnMin=12 EnMin= -230.393714500594     IErMin=12 ErrMin= 2.04D-08
 ErrMax= 2.04D-08 EMaxC= 1.00D-01 BMatC= 2.62D-14 BMatP= 2.56D-13
 IDIUse=1 WtCom= 1.00D+00 WtEn= 0.00D+00
 Coeff-Com:  0.130D-06-0.189D-05-0.116D-04-0.173D-04 0.270D-03-0.398D-03
 Coeff-Com: -0.996D-03 0.635D-03 0.163D-01-0.118D+00 0.373D+00 0.729D+00
 Coeff:      0.130D-06-0.189D-05-0.116D-04-0.173D-04 0.270D-03-0.398D-03
 Coeff:     -0.996D-03 0.635D-03 0.163D-01-0.118D+00 0.373D+00 0.729D+00
 Gap=     0.381 Goal=   None    Shift=    0.000
 RMSDP=6.37D-09 MaxDP=1.87D-07 DE=-2.61D-12 OVMax= 5.93D-08

 SCF Done:  E(RHF) =  -230.393714501     A.U. after   12 cycles
             Convg  =    0.6368D-08             -V/T =  2.0014
 KE= 2.300816636629D+02 PE=-8.872512184575D+02 EE= 2.514644014246D+02
 Leave Link  502 at Tue Dec  7 12:51:06 2021, MaxMem=  498073600 cpu:      11.6
 (Enter /apps/software//g09/l801.exe)
 ExpMin= 3.60D-02 ExpMax= 4.56D+03 ExpMxC= 6.82D+02 IAcc=3 IRadAn=         5 AccDes= 0.00D+00
 HarFok:  IExCor=  205 AccDes= 0.00D+00 IRadAn=         5 IDoV=-2
 ScaDFX=  1.000000  1.000000  1.000000  1.000000
 Largest valence mixing into a core orbital is  1.49D-04
 Largest core mixing into a valence orbital is  5.18D-05
 Range of M.O.s used for correlation:     7   174
 NBasis=   174 NAE=    21 NBE=    21 NFC=     6 NFV=     0
 NROrb=    168 NOA=    15 NOB=    15 NVA=   153 NVB=   153

 **** Warning!!: The largest alpha MO coefficient is  0.11943230D+03

 Leave Link  801 at Tue Dec  7 12:51:06 2021, MaxMem=  498073600 cpu:       1.5
 (Enter /apps/software//g09/l906.exe)
 Frozen-core derivative calculation, NFC=   6 NFV=   0.
 FulOut=F Deriv=T AODrv=T NAtomX=    12
   MMem=           0  MDisk=          15 MDiskD=          15
  W3Min=      657720 MinDsk=     2176070 NBas6D=         180
 NBas2D=       16542    NTT=       16290    LW2=     3000000
    MDV=   497710781 MDiskM=       38249 NBas2p=       16476
 Disk-based method using ON**2 memory for 15 occupieds at a time.
 Permanent disk used for amplitudes=    12765249 words.
 Estimated scratch disk usage=   170872344 words.
 IMap=   1   2   3   4   5   6   7   8   9  10  11  12  13  14  15  16  17  18  19  20
 IMap=  21
 Actual    scratch disk usage=   153604632 words.
 JobTyp=1 Pass  1:  I=   7 to  21 NPSUse=  6 ParTrn=T ParDer=T DoDerP=T.
 (rs|ai) integrals will be sorted in core.
 Spin components of T(2) and E(2):
     alpha-alpha T2 =       0.5023974610D-01 E2=     -0.1119361159D+00
     alpha-beta  T2 =       0.2724094444D+00 E2=     -0.6506410878D+00
     beta-beta   T2 =       0.5023974610D-01 E2=     -0.1119361159D+00
 The integrals were generated   1 times.
 ANorm=    0.1171703434D+01
 E2 =    -0.8745133196D+00 EUMP2 =    -0.23126822782021D+03
 Leave Link  906 at Tue Dec  7 12:52:10 2021, MaxMem=  498073600 cpu:     375.4
 (Enter /apps/software//g09/l1101.exe)
 Using compressed Sx but separate Hx and Fx, NAtomX=    12.
 Will process  13 centers per pass.
 Leave Link 1101 at Tue Dec  7 12:52:11 2021, MaxMem=  498073600 cpu:       3.5
 (Enter /apps/software//g09/l1102.exe)
 Leave Link 1102 at Tue Dec  7 12:52:11 2021, MaxMem=  498073600 cpu:       0.0
 (Enter /apps/software//g09/l1110.exe)
 Forming Gx(P) for the SCF density, NAtomX=    12.
 Integral derivatives from FoFDir/FoFCou, PRISM(SPDF).
 Do as many integral derivatives as possible in FoFDir.
 G2DrvN: MDV=     498073400.
 G2DrvN: will do    13 centers at a time, making    1 passes doing MaxLOS=2.
 Calling FoFCou, ICntrl=  3107 FMM=F I1Cent=   0 AccDes= 0.00D+00.
 FoFCou: FMM=F IPFlag=           0 FMFlag=      100000 FMFlg1=           0
         NFxFlg=           0 DoJE=F BraDBF=F KetDBF=F FulRan=T
         Omega=  0.000000  0.000000  1.000000  0.000000  0.000000 ICntrl=    3107 IOpCl=  0
         NMat0=    1 NMatS0=    1 NMatT0=    0 NMatD0=    1 NMtDS0=    0 NMtDT0=    0
         I1Cent=           0 NGrid=           0.
 Symmetry not used in FoFCou.
 FoFDir/FoFCou used for L=0 through L=2.
 End of G2Drv Frequency-dependent properties file   721 does not exist.
 End of G2Drv Frequency-dependent properties file   722 does not exist.
 Leave Link 1110 at Tue Dec  7 12:52:14 2021, MaxMem=  498073600 cpu:      15.2
 (Enter /apps/software//g09/l1002.exe)
 Minotr:  Closed shell wavefunction.
          IDoAtm=111111111111
          Frozen-core window.
          Direct CPHF calculation.
          Differentiating once with respect to electric field.
                with respect to dipole field.
          Differentiating once with respect to nuclear coordinates.
          Requested convergence is 1.0D-08 RMS, and 1.0D-07 maximum.
          Secondary convergence is 1.0D-12 RMS, and 1.0D-12 maximum.
          NewPWx=T KeepS1=T KeepF1=T KeepIn=T MapXYZ=F SortEE=F KeepMc=T.
          MDV=     498073476 using IRadAn=       2.
          Keep R1 ints in memory in canonical form, NReq=133511598.
 Symmetry not used in FoFDir.
 MinBra= 0 MaxBra= 2 Meth= 1.
 IRaf=       0 NMat=   1 IRICut=       1 DoRegI=T DoRafI=F ISym2E= 0 JSym2E=0.
          Solving linear equations simultaneously, MaxMat=       0.
          There are    39 degrees of freedom in the 1st order CPHF.  IDoFFX=5.
     36 vectors produced by pass  0 Test12= 8.24D-15 2.56D-09 XBig12= 3.92D+01 2.48D+00.
 AX will form    36 AO Fock derivatives at one time.
     36 vectors produced by pass  1 Test12= 8.24D-15 2.56D-09 XBig12= 3.94D+00 4.87D-01.
     36 vectors produced by pass  2 Test12= 8.24D-15 2.56D-09 XBig12= 8.65D-02 4.75D-02.
     36 vectors produced by pass  3 Test12= 8.24D-15 2.56D-09 XBig12= 8.19D-04 3.73D-03.
     36 vectors produced by pass  4 Test12= 8.24D-15 2.56D-09 XBig12= 8.05D-06 3.98D-04.
     36 vectors produced by pass  5 Test12= 8.24D-15 2.56D-09 XBig12= 7.17D-08 5.02D-05.
     36 vectors produced by pass  6 Test12= 8.24D-15 2.56D-09 XBig12= 5.09D-10 3.04D-06.
     18 vectors produced by pass  7 Test12= 8.24D-15 2.56D-09 XBig12= 3.10D-12 3.23D-07.
      3 vectors produced by pass  8 Test12= 8.24D-15 2.56D-09 XBig12= 1.64D-14 2.39D-08.
 Inverted reduced A of dimension   273 with in-core refinement.
 FullF1:  Do perturbations    1 to    39.
 Saving first derivative matrices.
 End of Minotr Frequency-dependent properties file   721 does not exist.
 End of Minotr Frequency-dependent properties file   722 does not exist.
 Leave Link 1002 at Tue Dec  7 12:52:19 2021, MaxMem=  498073600 cpu:      29.1
 (Enter /apps/software//g09/l811.exe)
 MDV=   498073600.
 Form MO integral derivatives with frozen-active canonical formalism.
 MOERI=1 MOERIx=1 NAtoms=    12 NAtomX=    12.
 Discarding MO integrals.
 MO basis two electron integral derivatives will not be stored on disk.
 IAlg= 3 DoFC=T DoPWx=T Debug=F.
 Frozen-core window:  NFC=   6 NFV=   0.
 Reordered first order wavefunction length =     20646738
 In DefCFB: NBatch=  1 ICI= 21 ICA=153 LFMax= 39
            Large arrays: LIAPS=   402524640 LIARS=    93112740 words.
 In StABat: MaxSiz= 23 MinSiz= 21 NAtomB=  8
 DoIAMN: NPSUse=  6.
 Leave Link  811 at Tue Dec  7 12:53:42 2021, MaxMem=  498073600 cpu:     480.5
 (Enter /apps/software//g09/l804.exe)
 Frozen-core window:  NFC=   6 NFV=   0.
 Closed-shell transformation, MDV=   498073600 ITran=4 ISComp=1.
 Semi-Direct transformation.
 ModeAB=           4 MOrb=            21 LenV=     497235494
 LASXX=     50822898 LTotXX=    50822898 LenRXX=   102515595
 LTotAB=    51692697 MaxLAS=    59359230 LenRXY=           0
 NonZer=   153338493 LenScr=   230909952 LnRSAI=    59359230
 LnScr1=    89800704 LExtra=           0 Total=    482585481
 MaxDsk=          -1 SrtSym=           T ITran=            4
 DoSDTr:  NPSUse=  6
 JobTyp=0 Pass  1:  I=   1 to  21.
 (rs|ai) integrals will be sorted in core.
 Complete sort for first half transformation.
 First half transformation complete.
 Begin second half transformation for I=  10.
 Begin second half transformation for I=  20.
 Complete sort for second half transformation.
 Second half transformation complete.
 Spin components of T(2) and E(2):
     alpha-alpha T2 =       0.5023974610D-01 E2=     -0.1119361159D+00
     alpha-beta  T2 =       0.2724094444D+00 E2=     -0.6506410878D+00
     beta-beta   T2 =       0.5023974610D-01 E2=     -0.1119361159D+00
 ANorm=    0.1657038887D+01
 E2 =    -0.8745133196D+00 EUMP2 =    -0.23126822782021D+03
 Leave Link  804 at Tue Dec  7 12:53:53 2021, MaxMem=  498073600 cpu:      62.8
 (Enter /apps/software//g09/l1002.exe)
 Minotr:  Closed shell wavefunction.
          Computing MP2/KS-MP2 derivatives.
          Using Z-Vector for PSCF gradient.
          Skipping F1 and S1 gradient terms here.
          IDoAtm=111111111111
          Frozen-core window.
          Using MO integrals in the linear equations.
          Forming densities via direct SCF.
          Differentiating once with respect to electric field.
                with respect to dipole field.
          Differentiating once with respect to nuclear coordinates.
          Requested convergence is 1.0D-10 RMS, and 1.0D-09 maximum.
          NewPWx=F KeepS1=T KeepF1=T KeepIn=T MapXYZ=F SortEE=F KeepMc=T.
          MDV=     498073476 using IRadAn=       0.
          Solving linear equations separately, MaxMat=       0.
          There are     1 degrees of freedom in the 1st order CPHF.  IDoFFX=0.
 Symmetry not used in FoFDir.
 MinBra= 0 MaxBra= 2 Meth= 1.
 IRaf=       0 NMat=   1 IRICut=       1 DoRegI=T DoRafI=F ISym2E= 0 JSym2E=0.
 LinEq1:  Iter=  0 NonCon=     1 RMS=4.11D-03 Max=4.78D-02
 LinEq1:  Iter=  1 NonCon=     1 RMS=9.74D-04 Max=1.25D-02
 LinEq1:  Iter=  2 NonCon=     1 RMS=2.73D-04 Max=3.68D-03
 LinEq1:  Iter=  3 NonCon=     1 RMS=4.64D-05 Max=6.45D-04
 LinEq1:  Iter=  4 NonCon=     1 RMS=5.82D-06 Max=7.66D-05
 LinEq1:  Iter=  5 NonCon=     1 RMS=1.34D-06 Max=1.41D-05
 LinEq1:  Iter=  6 NonCon=     1 RMS=3.57D-07 Max=7.03D-06
 LinEq1:  Iter=  7 NonCon=     1 RMS=2.10D-07 Max=5.53D-06
 LinEq1:  Iter=  8 NonCon=     1 RMS=5.52D-08 Max=8.86D-07
 LinEq1:  Iter=  9 NonCon=     1 RMS=1.05D-08 Max=1.59D-07
 LinEq1:  Iter= 10 NonCon=     1 RMS=2.19D-09 Max=2.77D-08
 LinEq1:  Iter= 11 NonCon=     1 RMS=9.40D-10 Max=1.64D-08
 LinEq1:  Iter= 12 NonCon=     1 RMS=3.75D-10 Max=4.58D-09
 LinEq1:  Iter= 13 NonCon=     0 RMS=6.48D-11 Max=8.56D-10
 Linear equations converged to 1.000D-10 1.000D-09 after    13 iterations.
 End of Minotr Frequency-dependent properties file   721 does not exist.
 End of Minotr Frequency-dependent properties file   722 does not exist.
 Leave Link 1002 at Tue Dec  7 12:53:56 2021, MaxMem=  498073600 cpu:      14.1
 (Enter /apps/software//g09/l1102.exe)
 Use density number 2.
 Symmetrizing basis deriv contribution to polar:
 IMax=3 JMax=2 DiffMx= 0.00D+00
 Leave Link 1102 at Tue Dec  7 12:53:56 2021, MaxMem=  498073600 cpu:       0.2
 (Enter /apps/software//g09/l1110.exe)
 Forming Gx(P) for generalized density number  2 NAtomX=    12.
 Integral derivatives from FoFDir/FoFCou, PRISM(SPDF).
 Do as many integral derivatives as possible in FoFDir.
 G2DrvN: MDV=     498073400.
 G2DrvN: will do    13 centers at a time, making    1 passes doing MaxLOS=2.
 Calling FoFCou, ICntrl=  3107 FMM=F I1Cent=   0 AccDes= 0.00D+00.
 FoFCou: FMM=F IPFlag=           0 FMFlag=      100000 FMFlg1=           0
         NFxFlg=           0 DoJE=F BraDBF=F KetDBF=F FulRan=T
         Omega=  0.000000  0.000000  1.000000  0.000000  0.000000 ICntrl=    3107 IOpCl=  0
         NMat0=    1 NMatS0=    1 NMatT0=    0 NMatD0=    1 NMtDS0=    0 NMtDT0=    0
         I1Cent=           0 NGrid=           0.
 Symmetry not used in FoFCou.
 FoFDir/FoFCou used for L=0 through L=2.
 End of G2Drv Frequency-dependent properties file   721 does not exist.
 End of G2Drv Frequency-dependent properties file   722 does not exist.
 Leave Link 1110 at Tue Dec  7 12:54:00 2021, MaxMem=  498073600 cpu:      18.3
 (Enter /apps/software//g09/l1112.exe)
 MP22nd: MDV=     498073600
 This link is doing NAtomX=    12 total of    39 degrees of freedom.
 Using ON3 I/O method in MakUI.
 Frozen-core window:  NFC=   6 NFV=   0.
 Using Ix for Sx.
 Use MO integrals over full window.
 Using OV2 memory method for fx*t*t/D, MaxI=    21 DoOO2=F NP=   6.
 R2 and R3 integrals will be kept in memory, NReq=   268345170.
 Symmetry not used in FoFDir.
 MinBra= 0 MaxBra= 2 Meth= 1.
 IRaf=       0 NMat=   1 IRICut=       1 DoRegI=T DoRafI=F ISym2E= 0 JSym2E=0.
 DD1Dir will call FoFMem   1 times, MxPair=       462
 NAB=   231 NAA=     0 NBB=     0.
 Discarding MO integrals.
 Leave Link 1112 at Tue Dec  7 12:55:42 2021, MaxMem=  498073600 cpu:     527.8
 (Enter /apps/software//g09/l601.exe)
 Copying SCF densities to generalized density rwf, IOpCl= 0 IROHF=0.

 **********************************************************************

            Population analysis using the MP2 density.

 **********************************************************************

 Alpha  occ. eigenvalues --  -11.23909 -11.23907 -11.23907 -11.23578 -11.23577
 Alpha  occ. eigenvalues --  -11.23575  -1.04490  -1.01325  -1.01322  -0.78362
 Alpha  occ. eigenvalues --   -0.78362  -0.71480  -0.69115  -0.64693  -0.64687
 Alpha  occ. eigenvalues --   -0.49155  -0.42439  -0.38323  -0.38319  -0.33766
 Alpha  occ. eigenvalues --   -0.33745
 Alpha virt. eigenvalues --    0.04318   0.04447   0.04447   0.06210   0.06212
 Alpha virt. eigenvalues --    0.08444   0.11184   0.11184   0.11742   0.11755
 Alpha virt. eigenvalues --    0.13395   0.14993   0.16528   0.16529   0.17648
 Alpha virt. eigenvalues --    0.17986   0.17987   0.18849   0.19451   0.19451
 Alpha virt. eigenvalues --    0.20367   0.20419   0.21776   0.21777   0.22904
 Alpha virt. eigenvalues --    0.22905   0.24411   0.24414   0.25089   0.25089
 Alpha virt. eigenvalues --    0.28304   0.28305   0.28658   0.29647   0.32561
 Alpha virt. eigenvalues --    0.35046   0.36346   0.38796   0.38805   0.43587
 Alpha virt. eigenvalues --    0.43589   0.48958   0.55369   0.56657   0.56662
 Alpha virt. eigenvalues --    0.63389   0.65053   0.66651   0.66651   0.67490
 Alpha virt. eigenvalues --    0.75250   0.75250   0.80018   0.81508   0.81518
 Alpha virt. eigenvalues --    0.83423   0.83426   0.87486   0.87488   0.88657
 Alpha virt. eigenvalues --    0.96899   0.98613   0.98622   1.02382   1.02876
 Alpha virt. eigenvalues --    1.04401   1.04402   1.09774   1.09777   1.16047
 Alpha virt. eigenvalues --    1.16049   1.23771   1.27190   1.27659   1.27662
 Alpha virt. eigenvalues --    1.29920   1.29922   1.36095   1.39938   1.46191
 Alpha virt. eigenvalues --    1.46219   1.48814   1.50245   1.50280   1.62065
 Alpha virt. eigenvalues --    1.62902   1.62912   1.62925   1.62941   1.72085
 Alpha virt. eigenvalues --    1.84458   1.91731   1.91736   1.93733   1.97651
 Alpha virt. eigenvalues --    1.97665   1.97918   1.97924   2.01776   2.09317
 Alpha virt. eigenvalues --    2.11424   2.11432   2.15940   2.15950   2.17109
 Alpha virt. eigenvalues --    2.28116   2.28164   2.28866   2.42015   2.42033
 Alpha virt. eigenvalues --    2.45290   2.71830   2.71854   2.74983   2.78845
 Alpha virt. eigenvalues --    2.78877   2.83500   2.96005   2.96018   2.97437
 Alpha virt. eigenvalues --    3.04875   3.04880   3.06131   3.10248   3.11693
 Alpha virt. eigenvalues --    3.14057   3.14077   3.15546   3.15549   3.26996
 Alpha virt. eigenvalues --    3.32739   3.32746   3.37500   3.42652   3.42706
 Alpha virt. eigenvalues --    3.46857   3.46871   3.48646   3.51940   3.51975
 Alpha virt. eigenvalues --    3.76467   3.80811   3.88509   3.88529   4.39386
 Alpha virt. eigenvalues --    4.39394   4.47569  24.70153  24.76083  24.76085
 Alpha virt. eigenvalues --   26.03997  26.04054  26.11844
          Condensed to atoms (all electrons):
              1          2          3          4          5          6
     1  C    8.492007  -2.475546   0.336319  -0.616834  -0.120410   0.337876
     2  C   -2.475546   8.491288  -0.615937   0.336678   0.337006  -0.120769
     3  C    0.336319  -0.615937   8.495123  -0.119457  -2.479578   0.336531
     4  C   -0.616834   0.336678  -0.119457   8.496413   0.336636  -2.480633
     5  C   -0.120410   0.337006  -2.479578   0.336636   8.495640  -0.616277
     6  C    0.337876  -0.120769   0.336531  -2.480633  -0.616277   8.496626
     7  H   -0.239039   0.550378  -0.064199  -0.011919   0.007036   0.031531
     8  H    0.550528  -0.239139  -0.011938  -0.064253   0.031551   0.007089
     9  H   -0.064363   0.007109   0.031489   0.550937  -0.011825  -0.239618
    10  H    0.007012  -0.064230   0.550813   0.031503  -0.239474  -0.011841
    11  H   -0.011808   0.031487   0.007050  -0.239801  -0.064232   0.551121
    12  H    0.031519  -0.011858  -0.239660   0.007038   0.551009  -0.064217
              7          8          9         10         11         12
     1  C   -0.239039   0.550528  -0.064363   0.007012  -0.011808   0.031519
     2  C    0.550378  -0.239139   0.007109  -0.064230   0.031487  -0.011858
     3  C   -0.064199  -0.011938   0.031489   0.550813   0.007050  -0.239660
     4  C   -0.011919  -0.064253   0.550937   0.031503  -0.239801   0.007038
     5  C    0.007036   0.031551  -0.011825  -0.239474  -0.064232   0.551009
     6  C    0.031531   0.007089  -0.239618  -0.011841   0.551121  -0.064217
     7  H    0.523064  -0.013715  -0.001761  -0.009054   0.002555  -0.001759
     8  H   -0.013715   0.523104  -0.009075  -0.001765  -0.001757   0.002557
     9  H   -0.001761  -0.009075   0.523134   0.002551  -0.013759  -0.001758
    10  H   -0.009054  -0.001765   0.002551   0.523112  -0.001758  -0.013749
    11  H    0.002555  -0.001757  -0.013759  -0.001758   0.523183  -0.009073
    12  H   -0.001759   0.002557  -0.001758  -0.013749  -0.009073   0.523163
 Mulliken atomic charges:
              1
     1  C   -0.227260
     2  C   -0.226468
     3  C   -0.226557
     4  C   -0.226308
     5  C   -0.227082
     6  C   -0.227419
     7  H    0.226883
     8  H    0.226813
     9  H    0.226938
    10  H    0.226880
    11  H    0.226792
    12  H    0.226788
 Sum of Mulliken atomic charges =   0.00000
 Mulliken charges with hydrogens summed into heavy atoms:
              1
     1  C   -0.000447
     2  C    0.000416
     3  C    0.000323
     4  C    0.000630
     5  C   -0.000294
     6  C   -0.000628
 Sum of Mulliken charges with hydrogens summed into heavy atoms =   0.00000
 APT atomic charges:
              1
     1  C   -0.157596
     2  C   -0.157582
     3  C   -0.157511
     4  C   -0.157486
     5  C   -0.157748
     6  C   -0.157773
     7  H    0.157571
     8  H    0.157584
     9  H    0.157566
    10  H    0.157570
    11  H    0.157700
    12  H    0.157703
 Sum of APT charges=   0.00000
 APT Atomic charges with hydrogens summed into heavy atoms:
              1
     1  C   -0.000012
     2  C   -0.000011
     3  C    0.000060
     4  C    0.000081
     5  C   -0.000045
     6  C   -0.000073
     7  H    0.000000
     8  H    0.000000
     9  H    0.000000
    10  H    0.000000
    11  H    0.000000
    12  H    0.000000
 Sum of APT charges=   0.00000
 Electronic spatial extent (au):  <R**2>=            638.2338
 Charge=              0.0000 electrons
 Dipole moment (field-independent basis, Debye):
    X=             -0.0001    Y=             -0.0002    Z=              0.0000  Tot=              0.0002
 Quadrupole moment (field-independent basis, Debye-Ang):
   XX=            -30.0299   YY=            -30.0243   ZZ=            -41.6025
   XY=             -0.0023   XZ=              0.0000   YZ=              0.0000
 Traceless Quadrupole moment (field-independent basis, Debye-Ang):
   XX=              3.8557   YY=              3.8613   ZZ=             -7.7170
   XY=             -0.0023   XZ=              0.0000   YZ=              0.0000
 Octapole moment (field-independent basis, Debye-Ang**2):
  XXX=            -16.6737  YYY=             -9.5500  ZZZ=              0.0000  XYY=             16.6699
  XXY=              9.5534  XXZ=              0.0000  XZZ=              0.0002  YZZ=             -0.0002
  YYZ=              0.0000  XYZ=              0.0000
 Hexadecapole moment (field-independent basis, Debye-Ang**3):
 XXXX=           -388.4256 YYYY=           -388.2784 ZZZZ=            -52.7318 XXXY=             -0.0168
 XXXZ=              0.0000 YYYX=             -0.0244 YYYZ=              0.0000 ZZZX=              0.0000
 ZZZY=              0.0000 XXYY=           -129.4513 XXZZ=            -90.5337 YYZZ=            -90.5147
 XXYZ=              0.0000 YYXZ=              0.0000 ZZXY=             -0.0044
 N-N= 1.753114388694D+02 E-N=-8.885006519410D+02  KE= 2.313574212141D+02
  Exact polarizability:  85.995  -0.008  86.011   0.000   0.000  42.029
 Approx polarizability:  88.471  -0.016  88.504   0.000   0.000  40.568
 No NMR shielding tensors so no spin-rotation constants.
 Leave Link  601 at Tue Dec  7 12:55:43 2021, MaxMem=  498073600 cpu:       1.1
 (Enter /apps/software//g09/l701.exe)
 Compute integral second derivatives.
 ... and contract with generalized density number  2.
 Leave Link  701 at Tue Dec  7 12:55:43 2021, MaxMem=  498073600 cpu:       1.0
 (Enter /apps/software//g09/l702.exe)
 L702 exits ... SP integral derivatives will be done elsewhere.
 Leave Link  702 at Tue Dec  7 12:55:43 2021, MaxMem=  498073600 cpu:       0.0
 (Enter /apps/software//g09/l703.exe)
 Compute integral second derivatives, UseDBF=F ICtDFT=           0.
 Integral derivatives from FoFDir, PRISM(SPDF).
 Calling FoFJK, ICntrl=    100127 FMM=F ISym2X=0 I1Cent= 0 IOpClX= 0 NMat=1 NMatS=1 NMatT=0.
 FoFCou: FMM=F IPFlag=           0 FMFlag=      100000 FMFlg1=         800
         NFxFlg=           0 DoJE=F BraDBF=F KetDBF=F FulRan=T
         Omega=  0.000000  0.000000  1.000000  0.000000  0.000000 ICntrl=  100127 IOpCl=  0
         NMat0=    1 NMatS0=    1 NMatT0=    0 NMatD0=    1 NMtDS0=    0 NMtDT0=    0
         I1Cent=           0 NGrid=           0.
 Symmetry not used in FoFCou.
 Leave Link  703 at Tue Dec  7 12:55:53 2021, MaxMem=  498073600 cpu:      55.3
 (Enter /apps/software//g09/l716.exe)
 Dipole        =-2.65839027D-05-7.14812836D-05-2.01346132D-14
 Polarizability= 8.59953693D+01-8.20306940D-03 8.60111866D+01
                -1.21491556D-12 3.68935570D-12 4.20288274D+01
 -------------------------------------------------------------------
 Center     Atomic                   Forces (Hartrees/Bohr)
 Number     Number              X              Y              Z
 -------------------------------------------------------------------
      1        6          -0.021720437   -0.002537523    0.000000000
      2        6           0.018246095    0.012075077    0.000000000
      3        6           0.008674623    0.020124026    0.000000000
      4        6          -0.019577867    0.009772700    0.000000000
      5        6           0.001281017   -0.021871181    0.000000000
      6        6           0.013092053   -0.017539012    0.000000000
      7        1           0.002633582   -0.000464586    0.000000000
      8        1          -0.001722954   -0.002046022    0.000000000
      9        1          -0.000930201    0.002510438    0.000000000
     10        1          -0.000904577    0.002516187    0.000000000
     11        1           0.002629205   -0.000477597    0.000000000
     12        1          -0.001700537   -0.002062507    0.000000000
 -------------------------------------------------------------------
 Cartesian Forces:  Max     0.021871181 RMS     0.009002910
 Force constants in Cartesian coordinates: 
                1             2             3             4             5 
      1  0.127480D+01
      2  0.230516D+00  0.106306D+00
      3  0.000000D+00  0.000000D+00 -0.187393D-01
      4 -0.818188D+00 -0.239233D+00  0.000000D+00  0.101671D+01
      5 -0.331947D+00 -0.140305D+00  0.000000D+00  0.536650D+00  0.364362D+00
      6  0.000000D+00  0.000000D+00  0.380892D-01  0.000000D+00  0.000000D+00
      7 -0.231520D-01 -0.198182D-01  0.000000D+00  0.271307D-01 -0.130999D-01
      8  0.232412D-01  0.293308D-01  0.000000D+00 -0.524430D-01  0.154323D-01
      9  0.000000D+00  0.000000D+00 -0.337638D-01  0.000000D+00  0.000000D+00
     10 -0.100287D-01 -0.835790D-02  0.000000D+00  0.334023D-03 -0.462250D-02
     11  0.309851D-01  0.525942D-01  0.000000D+00 -0.476790D-01  0.584233D-02
     12  0.000000D+00  0.000000D+00  0.341180D-01  0.000000D+00  0.000000D+00
     13 -0.147285D-01 -0.262965D-01  0.000000D+00  0.271057D-01 -0.108320D-01
     14 -0.108024D-01 -0.213551D-01  0.000000D+00  0.322132D-01 -0.209364D-01
     15  0.000000D+00  0.000000D+00  0.292726D-01  0.000000D+00  0.000000D+00
     16  0.176938D-01  0.433917D-01  0.000000D+00 -0.357670D-01  0.141517D-01
     17  0.340690D-03 -0.115249D-01  0.000000D+00 -0.134067D-02 -0.323736D-03
     18  0.000000D+00  0.000000D+00 -0.337490D-01  0.000000D+00  0.000000D+00
     19 -0.519537D-02 -0.113005D-01  0.000000D+00 -0.208922D+00 -0.201517D+00
     20  0.189870D-01  0.114267D-01  0.000000D+00 -0.222326D+00 -0.217657D+00
     21  0.000000D+00  0.000000D+00 -0.716299D-02  0.000000D+00  0.000000D+00
     22 -0.421457D+00  0.297705D-01  0.000000D+00  0.550159D-02  0.629911D-02
     23  0.505704D-01 -0.515367D-02  0.000000D+00 -0.239792D-01  0.735559D-03
     24  0.000000D+00  0.000000D+00 -0.897591D-02  0.000000D+00  0.000000D+00
     25 -0.428102D-02 -0.512190D-02  0.000000D+00  0.397178D-02 -0.340487D-03
     26 -0.846322D-02 -0.154401D-01  0.000000D+00  0.568500D-02 -0.169678D-02
     27  0.000000D+00  0.000000D+00 -0.688517D-02  0.000000D+00  0.000000D+00
     28  0.425274D-02  0.535569D-02  0.000000D+00 -0.156130D-01  0.497839D-02
     29 -0.672030D-03 -0.197705D-02  0.000000D+00  0.831992D-02 -0.411022D-02
     30  0.000000D+00  0.000000D+00  0.534017D-02  0.000000D+00  0.000000D+00
     31 -0.247065D-02 -0.538550D-02  0.000000D+00  0.458938D-02 -0.275130D-02
     32 -0.217316D-02 -0.406302D-02  0.000000D+00  0.431266D-02 -0.166627D-02
     33  0.000000D+00  0.000000D+00  0.659151D-02  0.000000D+00  0.000000D+00
     34  0.275822D-02  0.648043D-02  0.000000D+00 -0.685303D-02  0.303082D-02
     35 -0.582368D-03  0.161491D-03  0.000000D+00 -0.180032D-03  0.322768D-03
     36  0.000000D+00  0.000000D+00 -0.413536D-02  0.000000D+00  0.000000D+00
                6             7             8             9            10 
      6 -0.187386D-01
      7  0.000000D+00  0.198497D+00
      8  0.000000D+00  0.390415D+00  0.118288D+01
      9  0.341238D-01  0.000000D+00  0.000000D+00 -0.187208D-01
     10  0.000000D+00 -0.363622D-02  0.437970D-02  0.000000D+00  0.992061D+00
     11  0.000000D+00  0.199122D-01 -0.324591D-01  0.000000D+00 -0.551095D+00
     12 -0.337600D-01  0.000000D+00  0.000000D+00  0.292673D-01  0.000000D+00
     13  0.000000D+00 -0.622887D-01 -0.104203D+00  0.000000D+00 -0.181211D-01
     14  0.000000D+00 -0.196829D+00 -0.896542D+00  0.000000D+00 -0.604174D-02
     15 -0.337501D-01  0.000000D+00  0.000000D+00  0.380504D-01  0.000000D+00
     16  0.000000D+00  0.147447D-01 -0.450430D-01  0.000000D+00 -0.557050D+00
     17  0.000000D+00 -0.204701D-02 -0.852382D-02  0.000000D+00  0.482840D+00
     18  0.292733D-01  0.000000D+00  0.000000D+00 -0.337181D-01  0.000000D+00
     19  0.000000D+00 -0.676794D-02  0.989952D-02  0.000000D+00 -0.238562D-03
     20  0.000000D+00  0.655142D-02 -0.129454D-01  0.000000D+00  0.788766D-03
     21 -0.898032D-02  0.000000D+00  0.000000D+00 -0.689045D-02  0.000000D+00
     22  0.000000D+00 -0.391223D-03  0.970320D-03  0.000000D+00 -0.122750D-02
     23  0.000000D+00  0.418373D-02 -0.613738D-02  0.000000D+00  0.332568D-02
     24 -0.716359D-02  0.000000D+00  0.000000D+00  0.659143D-02  0.000000D+00
     25  0.000000D+00 -0.174422D-02  0.317974D-02  0.000000D+00 -0.398989D+00
     26  0.000000D+00 -0.388124D-02  0.466207D-02  0.000000D+00  0.919047D-01
     27  0.533833D-02  0.000000D+00  0.000000D+00 -0.413236D-02  0.000000D+00
     28  0.000000D+00 -0.143882D+00 -0.210719D+00  0.000000D+00  0.570854D-03
     29  0.000000D+00 -0.189902D+00 -0.282750D+00  0.000000D+00  0.432919D-03
     30 -0.688723D-02  0.000000D+00  0.000000D+00 -0.898214D-02  0.000000D+00
     31  0.000000D+00 -0.245284D-02  0.454193D-02  0.000000D+00 -0.570325D-02
     32  0.000000D+00 -0.148932D-02  0.471716D-02  0.000000D+00 -0.127788D-01
     33 -0.413579D-02  0.000000D+00  0.000000D+00  0.533490D-02  0.000000D+00
     34  0.000000D+00  0.394223D-02 -0.242192D-01  0.000000D+00  0.202864D-02
     35  0.000000D+00  0.600470D-02  0.233662D-02  0.000000D+00 -0.776344D-03
     36  0.659106D-02  0.000000D+00  0.000000D+00 -0.716012D-02  0.000000D+00
               11            12            13            14            15 
     11  0.389212D+00
     12  0.000000D+00 -0.187035D-01
     13  0.369523D-01  0.000000D+00  0.624384D-01
     14  0.243415D-01  0.000000D+00  0.141981D-01  0.131918D+01
     15  0.000000D+00 -0.337168D-01  0.000000D+00  0.000000D+00 -0.186728D-01
     16  0.390207D+00  0.000000D+00  0.465981D-01  0.410144D-01  0.000000D+00
     17 -0.401674D+00  0.000000D+00  0.176747D-02 -0.416833D-02  0.000000D+00
     18  0.000000D+00  0.380337D-01  0.000000D+00  0.000000D+00  0.340487D-01
     19  0.400036D-02  0.000000D+00 -0.259692D-02 -0.189507D-02  0.000000D+00
     20 -0.628954D-02  0.000000D+00  0.412868D-02  0.486745D-02  0.000000D+00
     21  0.000000D+00  0.659031D-02  0.000000D+00  0.000000D+00  0.533896D-02
     22 -0.219544D-04  0.000000D+00 -0.775016D-03 -0.121221D-02  0.000000D+00
     23 -0.184914D-01  0.000000D+00  0.584569D-02  0.369813D-02  0.000000D+00
     24  0.000000D+00 -0.688911D-02  0.000000D+00  0.000000D+00 -0.413314D-02
     25  0.112722D+00  0.000000D+00 -0.269980D-02 -0.221097D-02  0.000000D+00
     26 -0.276377D-01  0.000000D+00 -0.541715D-02 -0.381988D-02  0.000000D+00
     27  0.000000D+00 -0.898277D-02  0.000000D+00  0.000000D+00  0.658239D-02
     28 -0.662871D-02  0.000000D+00  0.956592D-02  0.216296D-01  0.000000D+00
     29  0.234652D-02  0.000000D+00 -0.864477D-02 -0.334652D-02  0.000000D+00
     30  0.000000D+00 -0.413271D-02  0.000000D+00  0.000000D+00 -0.715590D-02
     31  0.174516D-01  0.000000D+00 -0.127159D-01 -0.995139D-02  0.000000D+00
     32  0.119787D-01  0.000000D+00 -0.661556D-02 -0.696018D-02  0.000000D+00
     33  0.000000D+00 -0.715905D-02  0.000000D+00  0.000000D+00 -0.687735D-02
     34 -0.680649D-02  0.000000D+00 -0.317823D-01  0.119887D+00  0.000000D+00
     35  0.235899D-03  0.000000D+00  0.991172D-01 -0.394955D+00  0.000000D+00
     36  0.000000D+00  0.533462D-02  0.000000D+00  0.000000D+00 -0.898691D-02
               16            17            18            19            20 
     16  0.598284D+00
     17 -0.621595D+00  0.783214D+00
     18  0.000000D+00  0.000000D+00 -0.186580D-01
     19  0.336673D-02  0.933224D-03  0.000000D+00  0.221736D+00
     20 -0.612607D-02 -0.443561D-03  0.000000D+00  0.197321D+00  0.219050D+00
     21  0.000000D+00  0.000000D+00 -0.413273D-02  0.000000D+00  0.000000D+00
     22  0.160430D-02 -0.855555D-03  0.000000D+00 -0.805047D-03  0.372534D-03
     23 -0.688111D-02  0.667403D-03  0.000000D+00 -0.133935D-02  0.342072D-03
     24  0.000000D+00  0.000000D+00  0.533889D-02  0.000000D+00  0.000000D+00
     25  0.105987D-01 -0.987317D-02  0.000000D+00 -0.159057D-03  0.286242D-03
     26  0.204051D-01 -0.438272D-02  0.000000D+00 -0.483871D-03  0.649177D-03
     27  0.000000D+00  0.000000D+00 -0.715390D-02  0.000000D+00  0.000000D+00
     28 -0.692516D-02 -0.404726D-03  0.000000D+00 -0.462139D-03 -0.187128D-03
     29  0.280067D-02  0.404032D-03  0.000000D+00  0.476227D-02  0.354352D-03
     30  0.000000D+00  0.000000D+00  0.658294D-02  0.000000D+00  0.000000D+00
     31 -0.746593D-01  0.149999D+00  0.000000D+00 -0.489759D-03  0.889443D-03
     32  0.170774D+00 -0.352058D+00  0.000000D+00 -0.464910D-03  0.687260D-03
     33  0.000000D+00  0.000000D+00 -0.898832D-02  0.000000D+00  0.000000D+00
     34 -0.184891D-01  0.235488D-03  0.000000D+00  0.534436D-03 -0.686312D-03
     35 -0.309948D-02 -0.118657D-02  0.000000D+00  0.844388D-04 -0.424403D-04
     36  0.000000D+00  0.000000D+00 -0.687742D-02  0.000000D+00  0.000000D+00
               21            22            23            24            25 
     21  0.731235D-02
     22  0.000000D+00  0.415133D+00
     23  0.000000D+00 -0.320721D-01  0.256837D-01
     24  0.551701D-02  0.000000D+00  0.000000D+00  0.730758D-02
     25  0.000000D+00  0.213164D-02  0.168494D-02  0.000000D+00  0.390593D+00
     26  0.000000D+00 -0.326521D-02 -0.223954D-02  0.000000D+00 -0.999501D-01
     27 -0.677889D-03  0.000000D+00  0.000000D+00  0.347240D-02  0.000000D+00
     28  0.000000D+00  0.791625D-04 -0.767489D-03  0.000000D+00  0.577402D-03
     29  0.000000D+00  0.354038D-05  0.411510D-03  0.000000D+00 -0.273721D-03
     30  0.347282D-02  0.000000D+00  0.000000D+00 -0.678389D-03  0.000000D+00
     31  0.000000D+00 -0.175995D-05  0.721286D-03  0.000000D+00 -0.360786D-03
     32  0.000000D+00 -0.501309D-04  0.494072D-03  0.000000D+00 -0.117045D-03
     33  0.291310D-03  0.000000D+00  0.000000D+00 -0.678454D-03  0.000000D+00
     34  0.000000D+00  0.208377D-03 -0.129241D-02  0.000000D+00  0.361813D-03
     35  0.000000D+00  0.612338D-04 -0.104800D-04  0.000000D+00  0.145396D-04
     36 -0.678382D-03  0.000000D+00  0.000000D+00  0.291264D-03  0.000000D+00
               26            27            28            29            30 
     26  0.502511D-01
     27  0.000000D+00  0.730667D-02
     28  0.107987D-02  0.000000D+00  0.150695D+00
     29 -0.378818D-03  0.000000D+00  0.184628D+00  0.290151D+00
     30  0.000000D+00  0.290876D-03  0.000000D+00  0.000000D+00  0.730728D-02
     31  0.160056D-02  0.000000D+00  0.659673D-03 -0.338620D-03  0.000000D+00
     32 -0.959024D-04  0.000000D+00  0.432509D-03 -0.168534D-03  0.000000D+00
     33  0.000000D+00  0.551888D-02  0.000000D+00  0.000000D+00 -0.677568D-03
     34  0.785619D-03  0.000000D+00  0.481464D-03 -0.111556D-02  0.000000D+00
     35  0.129070D-03  0.000000D+00  0.602922D-03 -0.936924D-03  0.000000D+00
     36  0.000000D+00 -0.677463D-03  0.000000D+00  0.000000D+00  0.551984D-02
               31            32            33            34            35 
     31  0.954436D-01
     32 -0.152804D+00  0.345414D+00
     33  0.000000D+00  0.000000D+00  0.731100D-02
     34 -0.183847D-02  0.974015D-03  0.000000D+00  0.486477D-01
     35 -0.397309D-02  0.172044D-02  0.000000D+00 -0.972737D-01  0.392225D+00
     36  0.000000D+00  0.000000D+00  0.346892D-02  0.000000D+00  0.000000D+00
               36 
     36  0.730996D-02
 Force constants in internal coordinates: 
                1             2             3             4             5 
      1  0.904114D+00
      2  0.888190D-02  0.442215D-02
      3 -0.219209D-01 -0.107332D-01  0.416784D+00
      4 -0.233747D-01 -0.315727D-02  0.431117D-02  0.211247D-01
      5  0.887550D-02 -0.191287D-01 -0.934272D-02 -0.181553D-02  0.441979D-02
      6 -0.219201D-01 -0.934333D-02 -0.782757D-02 -0.208122D-02 -0.107341D-01
      7 -0.233719D-01 -0.181582D-02 -0.208179D-02  0.725807D-03 -0.315576D-02
      8  0.156371D-01  0.626722D-01  0.126377D-01 -0.143594D-01 -0.657648D-02
      9  0.223156D-01  0.648842D-02  0.115849D-01  0.587450D-03 -0.744911D-02
     10  0.102176D-01  0.858107D-02  0.113585D-02 -0.266911D-03 -0.146138D-01
     11  0.156406D-01 -0.657060D-02  0.516649D-03  0.279089D-01  0.626641D-01
     12  0.223162D-01 -0.744906D-02 -0.411428D-02 -0.376606D-02  0.648560D-02
     13  0.102229D-01 -0.146182D-01 -0.473896D-04  0.204659D-02  0.858306D-02
     14  0.437038D-01 -0.176151D-01  0.619704D-02  0.442748D-02 -0.176155D-01
     15 -0.386888D-03 -0.397255D-03  0.144144D-02  0.198956D-03 -0.224248D-02
     16 -0.151054D-01  0.102009D-01 -0.891189D-03 -0.932704D-02 -0.306932D-02
     17 -0.151046D-01 -0.306969D-02 -0.372845D-02 -0.329983D-02  0.101998D-01
     18 -0.385062D-03 -0.224313D-02 -0.616889D-03 -0.591485D-03 -0.399382D-03
     19  0.817606D-01 -0.137708D-01  0.299316D-01 -0.120900D-01  0.550248D-02
     20  0.817700D-01  0.550979D-02  0.234263D-01 -0.914806D-03 -0.137641D-01
     21 -0.378834D-01 -0.109718D-01 -0.397266D-02 -0.294223D-04 -0.602215D-02
     22 -0.378899D-01 -0.602031D-02  0.150589D-01  0.439055D-02 -0.109692D-01
     23  0.370657D-01 -0.154135D-02  0.579142D-02  0.271928D-02 -0.737503D-02
     24  0.330091D-01 -0.197312D-02  0.472028D-02  0.187907D-02 -0.458287D-02
     25 -0.187209D-01 -0.373832D-02 -0.263685D-02 -0.213296D-02 -0.156393D-02
     26 -0.142882D-01  0.571144D-02 -0.208342D-02  0.253897D-03  0.614680D-02
     27  0.370655D-01 -0.737608D-02  0.648369D-03  0.267049D-02 -0.154287D-02
     28 -0.187197D-01 -0.156387D-02  0.830884D-03 -0.129576D-02 -0.373750D-02
     29  0.330086D-01 -0.458361D-02  0.410605D-03  0.506918D-03 -0.197435D-02
     30 -0.142888D-01  0.614747D-02 -0.124149D-02  0.788838D-03  0.571185D-02
     31  0.000000D+00  0.000000D+00  0.000000D+00  0.000000D+00  0.000000D+00
     32  0.000000D+00  0.000000D+00  0.000000D+00  0.000000D+00  0.000000D+00
     33  0.000000D+00  0.000000D+00  0.000000D+00  0.000000D+00  0.000000D+00
     34  0.000000D+00  0.000000D+00  0.000000D+00  0.000000D+00  0.000000D+00
     35  0.000000D+00  0.000000D+00  0.000000D+00  0.000000D+00  0.000000D+00
     36  0.000000D+00  0.000000D+00  0.000000D+00  0.000000D+00  0.000000D+00
     37  0.000000D+00  0.000000D+00  0.000000D+00  0.000000D+00  0.000000D+00
     38  0.000000D+00  0.000000D+00  0.000000D+00  0.000000D+00  0.000000D+00
                6             7             8             9            10 
      6  0.416745D+00
      7  0.431184D-02  0.211229D-01
      8  0.515976D-03  0.279113D-01  0.920971D+00
      9 -0.411340D-02 -0.376612D-02 -0.477293D-02  0.250905D-01
     10 -0.471087D-04  0.204437D-02 -0.250494D-01  0.405027D-02  0.412693D+00
     11  0.126379D-01 -0.143573D-01  0.375578D-03 -0.256903D-01  0.669698D-02
     12  0.115846D-01  0.587375D-03 -0.256922D-01 -0.477127D-02 -0.133413D-02
     13  0.113598D-02 -0.266965D-03  0.669973D-02 -0.133458D-02  0.557074D-04
     14  0.619707D-02  0.442765D-02  0.570538D-02 -0.165806D-02 -0.741821D-02
     15 -0.616860D-03 -0.591555D-03  0.937910D-03  0.132201D-02 -0.435327D-03
     16 -0.372854D-02 -0.329969D-02 -0.623402D-02  0.520248D-02  0.198892D-02
     17 -0.891343D-03 -0.932669D-02  0.688575D-02  0.100301D-02  0.667096D-02
     18  0.144125D-02  0.199338D-03 -0.186215D-02 -0.299981D-03  0.201425D-02
     19  0.234245D-01 -0.913982D-03 -0.423996D-01 -0.100574D-01 -0.149088D-02
     20  0.299351D-01 -0.120895D-01 -0.362714D-02  0.111356D-01  0.144063D-01
     21  0.150582D-01  0.439188D-02  0.917292D-01 -0.125377D-01  0.413767D-01
     22 -0.397127D-02 -0.295800D-04 -0.212071D-01  0.219729D-02  0.741106D-03
     23  0.648544D-03  0.267060D-02 -0.313285D-01  0.185806D-02 -0.140289D-01
     24  0.410747D-03  0.507119D-03 -0.298983D-01  0.199806D-02 -0.123486D-01
     25  0.830824D-03 -0.129595D-02  0.338382D-01 -0.145387D-02  0.975366D-02
     26 -0.124157D-02  0.788828D-03 -0.393986D-02 -0.544191D-03  0.259492D-02
     27  0.579126D-02  0.271943D-02 -0.658409D-02 -0.304237D-02 -0.606994D-02
     28 -0.263675D-02 -0.213295D-02  0.102307D-01  0.173135D-02  0.405109D-02
     29  0.472011D-02  0.187921D-02 -0.794102D-02 -0.179221D-02 -0.568285D-02
     30 -0.208337D-02  0.253742D-03 -0.228969D-02  0.608521D-04  0.163176D-02
     31  0.000000D+00  0.000000D+00  0.000000D+00  0.000000D+00  0.000000D+00
     32  0.000000D+00  0.000000D+00  0.000000D+00  0.000000D+00  0.000000D+00
     33  0.000000D+00  0.000000D+00  0.000000D+00  0.000000D+00  0.000000D+00
     34  0.000000D+00  0.000000D+00  0.000000D+00  0.000000D+00  0.000000D+00
     35  0.000000D+00  0.000000D+00  0.000000D+00  0.000000D+00  0.000000D+00
     36  0.000000D+00  0.000000D+00  0.000000D+00  0.000000D+00  0.000000D+00
     37  0.000000D+00  0.000000D+00  0.000000D+00  0.000000D+00  0.000000D+00
     38  0.000000D+00  0.000000D+00  0.000000D+00  0.000000D+00  0.000000D+00
               11            12            13            14            15 
     11  0.920863D+00
     12 -0.477550D-02  0.250917D-01
     13 -0.250516D-01  0.405191D-02  0.412684D+00
     14  0.570477D-02 -0.165844D-02 -0.742064D-02  0.971907D-02
     15 -0.186539D-02 -0.300230D-03  0.201464D-02 -0.529228D-02  0.146785D-01
     16  0.688523D-02  0.100323D-02  0.667278D-02 -0.327622D-01  0.259394D-01
     17 -0.623218D-02  0.520254D-02  0.198953D-02 -0.327611D-01  0.227908D-01
     18  0.938656D-03  0.132183D-02 -0.435553D-03 -0.529305D-02  0.301375D-02
     19 -0.363030D-02  0.111364D-01  0.144093D-01 -0.103790D-01 -0.110285D-02
     20 -0.423979D-01 -0.100605D-01 -0.149102D-02 -0.103775D-01  0.146406D-02
     21 -0.212039D-01  0.219780D-02  0.741015D-03  0.167614D-02 -0.219763D-02
     22  0.917245D-01 -0.125380D-01  0.413864D-01  0.167490D-02 -0.234266D-02
     23 -0.658351D-02 -0.304167D-02 -0.607156D-02  0.101040D-01  0.104288D-02
     24 -0.793972D-02 -0.179147D-02 -0.568433D-02  0.286320D-02  0.510774D-02
     25  0.102293D-01  0.173061D-02  0.405199D-02 -0.914555D-02 -0.587327D-05
     26 -0.228961D-02  0.608607D-04  0.163234D-02  0.628235D-02 -0.510186D-02
     27 -0.313266D-01  0.185775D-02 -0.140322D-01  0.101039D-01 -0.281012D-02
     28  0.338380D-01 -0.145358D-02  0.975570D-02 -0.914577D-02 -0.304546D-02
     29 -0.298965D-01  0.199782D-02 -0.123514D-01  0.286293D-02  0.299175D-02
     30 -0.394147D-02 -0.544241D-03  0.259568D-02  0.628284D-02  0.537120D-04
     31  0.000000D+00  0.000000D+00  0.000000D+00  0.000000D+00  0.000000D+00
     32  0.000000D+00  0.000000D+00  0.000000D+00  0.000000D+00  0.000000D+00
     33  0.000000D+00  0.000000D+00  0.000000D+00  0.000000D+00  0.000000D+00
     34  0.000000D+00  0.000000D+00  0.000000D+00  0.000000D+00  0.000000D+00
     35  0.000000D+00  0.000000D+00  0.000000D+00  0.000000D+00  0.000000D+00
     36  0.000000D+00  0.000000D+00  0.000000D+00  0.000000D+00  0.000000D+00
     37  0.000000D+00  0.000000D+00  0.000000D+00  0.000000D+00  0.000000D+00
     38  0.000000D+00  0.000000D+00  0.000000D+00  0.000000D+00  0.000000D+00
               16            17            18            19            20 
     16  0.358777D+00
     17 -0.359990D-01  0.358764D+00
     18  0.227921D-01  0.259383D-01  0.146787D-01
     19  0.360313D-02  0.103757D-01  0.146274D-02  0.526204D-01
     20  0.103755D-01  0.360221D-02 -0.110335D-02 -0.156767D-01  0.526351D-01
     21 -0.383622D-02 -0.162193D-01 -0.234339D-02 -0.307828D-02 -0.243834D-01
     22 -0.162190D-01 -0.383646D-02 -0.219790D-02 -0.243833D-01 -0.307646D-02
     23  0.185569D-01 -0.358050D-01 -0.280939D-02 -0.442875D-02  0.216422D-02
     24  0.844967D-02  0.455179D-01  0.299222D-02 -0.179434D-02  0.301225D-02
     25  0.255180D-01 -0.123040D-02 -0.304647D-02 -0.660511D-03 -0.451329D-02
     26 -0.339676D-01 -0.442875D-01  0.542534D-04  0.245485D-02  0.150104D-02
     27 -0.358067D-01  0.185562D-01  0.104256D-02  0.216308D-02 -0.442900D-02
     28 -0.122976D-02  0.255180D-01 -0.607498D-05 -0.451309D-02 -0.660356D-03
     29  0.455193D-01  0.844908D-02  0.510773D-02  0.301147D-02 -0.179462D-02
     30 -0.442895D-01 -0.339671D-01 -0.510166D-02  0.150162D-02  0.245498D-02
     31  0.000000D+00  0.000000D+00  0.000000D+00  0.000000D+00  0.000000D+00
     32  0.000000D+00  0.000000D+00  0.000000D+00  0.000000D+00  0.000000D+00
     33  0.000000D+00  0.000000D+00  0.000000D+00  0.000000D+00  0.000000D+00
     34  0.000000D+00  0.000000D+00  0.000000D+00  0.000000D+00  0.000000D+00
     35  0.000000D+00  0.000000D+00  0.000000D+00  0.000000D+00  0.000000D+00
     36  0.000000D+00  0.000000D+00  0.000000D+00  0.000000D+00  0.000000D+00
     37  0.000000D+00  0.000000D+00  0.000000D+00  0.000000D+00  0.000000D+00
     38  0.000000D+00  0.000000D+00  0.000000D+00  0.000000D+00  0.000000D+00
               21            22            23            24            25 
     21  0.414660D-01
     22 -0.751253D-02  0.414722D-01
     23  0.277407D-02  0.625821D-02  0.205152D-01
     24 -0.804083D-03  0.555205D-02  0.120177D-01  0.220469D-01
     25 -0.147622D-02 -0.753025D-02 -0.103784D-01 -0.105360D-01  0.127153D-01
     26  0.228031D-02  0.197820D-02 -0.163934D-02 -0.115109D-01 -0.217933D-02
     27  0.625897D-02  0.277349D-02 -0.949258D-04  0.429412D-02 -0.277228D-02
     28 -0.753066D-02 -0.147669D-02 -0.277216D-02  0.351006D-02 -0.190366D-02
     29  0.555291D-02 -0.804554D-03  0.429421D-02  0.594678D-02  0.351003D-02
     30  0.197775D-02  0.228125D-02 -0.152205D-02 -0.945685D-02 -0.160638D-02
     31  0.000000D+00  0.000000D+00  0.000000D+00  0.000000D+00  0.000000D+00
     32  0.000000D+00  0.000000D+00  0.000000D+00  0.000000D+00  0.000000D+00
     33  0.000000D+00  0.000000D+00  0.000000D+00  0.000000D+00  0.000000D+00
     34  0.000000D+00  0.000000D+00  0.000000D+00  0.000000D+00  0.000000D+00
     35  0.000000D+00  0.000000D+00  0.000000D+00  0.000000D+00  0.000000D+00
     36  0.000000D+00  0.000000D+00  0.000000D+00  0.000000D+00  0.000000D+00
     37  0.000000D+00  0.000000D+00  0.000000D+00  0.000000D+00  0.000000D+00
     38  0.000000D+00  0.000000D+00  0.000000D+00  0.000000D+00  0.000000D+00
               26            27            28            29            30 
     26  0.136903D-01
     27 -0.152184D-02  0.205167D-01
     28 -0.160641D-02 -0.103797D-01  0.127160D-01
     29 -0.945682D-02  0.120189D-01 -0.105371D-01  0.220484D-01
     30  0.110632D-01 -0.163918D-02 -0.217893D-02 -0.115113D-01  0.136902D-01
     31  0.000000D+00  0.000000D+00  0.000000D+00  0.000000D+00  0.000000D+00
     32  0.000000D+00  0.000000D+00  0.000000D+00  0.000000D+00  0.000000D+00
     33  0.000000D+00  0.000000D+00  0.000000D+00  0.000000D+00  0.000000D+00
     34  0.000000D+00  0.000000D+00  0.000000D+00  0.000000D+00  0.000000D+00
     35  0.000000D+00  0.000000D+00  0.000000D+00  0.000000D+00  0.000000D+00
     36  0.000000D+00  0.000000D+00  0.000000D+00  0.000000D+00  0.000000D+00
     37  0.000000D+00  0.000000D+00  0.000000D+00  0.000000D+00  0.000000D+00
     38  0.000000D+00  0.000000D+00  0.000000D+00  0.000000D+00  0.000000D+00
               31            32            33            34            35 
     31 -0.225943D-02
     32 -0.277395D-02  0.751304D-02
     33  0.206669D-02  0.468977D-02  0.102206D-02
     34 -0.192401D-02 -0.598395D-02 -0.975294D-03  0.251137D-02
     35 -0.277396D-02  0.514410D-02  0.892349D-03 -0.414256D-02  0.751461D-02
     36 -0.192434D-02 -0.414231D-02  0.254591D-02 -0.601414D-03 -0.598434D-02
     37  0.206736D-02  0.893696D-03 -0.525696D-02  0.254597D-02  0.469117D-02
     38 -0.601538D-02 -0.429464D-03  0.558689D-02 -0.503170D-02 -0.429014D-03
               36            37            38 
     36  0.251076D-02
     37 -0.975289D-03  0.102113D-02
     38 -0.503179D-02  0.558861D-02 -0.100113D-01
 Leave Link  716 at Tue Dec  7 12:55:53 2021, MaxMem=  498073600 cpu:       0.1
 (Enter /apps/software//g09/l123.exe)
 IRC-IRC-IRC-IRC-IRC-IRC-IRC-IRC-IRC-IRC-IRC-IRC-IRC-IRC-IRC-IRC-IRC-IRC
          ******** Start new reaction path calculation ********
 Current Structure is TS -> diagonalize the Hessian.
 WARNING: TS HAS MORE THAN 1 IMAGINARY FREQUENCY!
 Supplied step size of   0.1000 bohr.
    Integration on MW PES will use step size of   0.2162 sqrt(amu)*bohr.
 Point Number:   0          Path Number:   1
 Calculating another point on the path.
 Point Number  1 in FORWARD path direction.
 Using LQA Reaction Path Following.
 IRC-IRC-IRC-IRC-IRC-IRC-IRC-IRC-IRC-IRC-IRC-IRC-IRC-IRC-IRC-IRC-IRC-IRC
 Leave Link  123 at Tue Dec  7 12:55:53 2021, MaxMem=  498073600 cpu:       0.9
 (Enter /apps/software//g09/l202.exe)
                          Input orientation:                          
 ---------------------------------------------------------------------
 Center     Atomic      Atomic             Coordinates (Angstroms)
 Number     Number       Type             X           Y           Z
 ---------------------------------------------------------------------
      1          6           0       -1.151759    1.366565    0.012482
      2          6           0       -0.000005    1.787103   -0.012482
      3          6           0        1.759485    0.314238    0.012476
      4          6           0       -1.547916   -0.893506   -0.012473
      5          6           0        1.548340   -0.893512   -0.012467
      6          6           0       -0.608110   -1.680942    0.012466
      7          1           0        0.729760    2.561169    0.017641
      8          1           0       -2.208613    1.488062   -0.017646
      9          1           0       -2.583053   -0.648199    0.017635
     10          1           0        2.392807    1.168980   -0.017638
     11          1           0       -0.184264   -2.656645   -0.017634
     12          1           0        1.852945   -1.912749    0.017635
 ---------------------------------------------------------------------
                    Distance matrix (angstroms):
                    1          2          3          4          5
     1  C    0.000000
     2  C    1.226382   0.000000
     3  C    3.095599   2.294724   0.000000
     4  C    2.294664   3.095431   3.521103   0.000000
     5  C    3.521236   3.095653   1.226322   3.096256   0.000000
     6  C    3.095618   3.521044   3.096167   1.226341   2.295854
     7  H    2.228726   1.064257   2.471651   4.138054   3.550465
     8  H    1.064241   2.228767   4.138185   2.471520   4.448215
     9  H    2.471417   3.550175   4.447915   1.064232   4.138779
    10  H    3.550196   2.471366   1.064231   4.447828   2.228682
    11  H    4.138015   4.447569   3.550382   2.228953   2.471959
    12  H    4.447715   4.138023   2.228953   3.550439   1.064206
                    6          7          8          9         10
     6  C    0.000000
     7  H    4.448081   0.000000
     8  H    3.550367   3.128393   0.000000
     9  H    2.228673   4.612458   2.169115   0.000000
    10  H    4.138655   2.169138   4.612470   5.297411   0.000000
    11  H    1.064212   5.297383   4.612655   3.128784   4.612668
    12  H    2.471953   4.612753   5.297454   4.612718   3.128857
                   11         12
    11  H    0.000000
    12  H    2.169066   0.000000
 Symmetry turned off by external request.
 Stoichiometry    C6H6
 Framework group  C1[X(C6H6)]
 Deg. of freedom    30
 Full point group                 C1      NOp   1
 Rotational constants (GHZ):      3.7039834      3.7028647      1.8518896
 Leave Link  202 at Tue Dec  7 12:55:53 2021, MaxMem=  498073600 cpu:       0.1
 (Enter /apps/software//g09/l301.exe)
 Standard basis: 6-311++G(d,p) (5D, 7F)
 Ernie: Thresh=  0.10000D-02 Tol=  0.10000D-05 Strict=F.
 Integral buffers will be    131072 words long.
 Raffenetti 1 integral format.
 Two-electron integral symmetry is turned off.
   174 basis functions,   270 primitive gaussians,   180 cartesian basis functions
    21 alpha electrons       21 beta electrons
       nuclear repulsion energy       175.2922499609 Hartrees.
 IExCor=    0 DFT=F Ex=HF Corr=None ExCW=0 ScaHFX=  1.000000
 ScaDFX=  1.000000  1.000000  1.000000  1.000000 ScalE2=  1.000000  1.000000
 IRadAn=      0 IRanWt=     -1 IRanGd=            0 ICorTp=0
 NAtoms=   12 NActive=   12 NUniq=   12 SFac= 7.50D-01 NAtFMM=   80 NAOKFM=F Big=F
 Leave Link  301 at Tue Dec  7 12:55:53 2021, MaxMem=  498073600 cpu:       0.1
 (Enter /apps/software//g09/l302.exe)
 NPDir=0 NMtPBC=     1 NCelOv=     1 NCel=       1 NClECP=     1 NCelD=      1
         NCelK=      1 NCelE2=     1 NClLst=     1 CellRange=     0.0.
 One-electron integrals computed using PRISM.
 NBasis=   174 RedAO= T  NBF=   174
 NBsUse=   174 1.00D-06 NBFU=   174
 Leave Link  302 at Tue Dec  7 12:55:53 2021, MaxMem=  498073600 cpu:       1.2
 (Enter /apps/software//g09/l303.exe)
 DipDrv:  MaxL=1.
 Leave Link  303 at Tue Dec  7 12:55:54 2021, MaxMem=  498073600 cpu:       0.4
 (Enter /apps/software//g09/l401.exe)
 Initial guess read from the read-write file.
 B after Tr=     0.000000    0.000000    0.000000
         Rot=    1.000000    0.000000    0.000000    0.000000 Ang=   0.00 deg.
 Guess basis will be translated and rotated to current coordinates.
 Generating alternative initial guess.
 Harris functional with IExCor=  205 diagonalized for initial guess.
 ExpMin= 3.60D-02 ExpMax= 4.56D+03 ExpMxC= 6.82D+02 IAcc=3 IRadAn=         0 AccDes= 0.00D+00
 HarFok:  IExCor=  205 AccDes= 0.00D+00 IRadAn=         0 IDoV= 1
 ScaDFX=  1.000000  1.000000  1.000000  1.000000
 FoFCou: FMM=F IPFlag=           0 FMFlag=      100000 FMFlg1=           0
         NFxFlg=           0 DoJE=T BraDBF=F KetDBF=T FulRan=T
         Omega=  0.000000  0.000000  1.000000  0.000000  0.000000 ICntrl=     500 IOpCl=  0
         NMat0=    1 NMatS0=    1 NMatT0=    0 NMatD0=    1 NMtDS0=    0 NMtDT0=    0
         I1Cent=           4 NGrid=           0.
 Symmetry not used in FoFCou.
 Harris En= -230.863909850072    
 Leave Link  401 at Tue Dec  7 12:55:55 2021, MaxMem=  498073600 cpu:       4.4
 (Enter /apps/software//g09/l502.exe)
 Closed shell SCF:
 Requested convergence on RMS density matrix=1.00D-08 within 128 cycles.
 Requested convergence on MAX density matrix=1.00D-06.
 Requested convergence on             energy=1.00D-06.
 No special actions if energy rises.
 Using DIIS extrapolation, IDIIS=  1040.
 Two-electron integral symmetry not used.
 Keep R1 ints in memory in canonical form, NReq=135772519.
 IEnd=      117530 IEndB=      117530 NGot=   498073600 MDV=   365315068
 LenX=   365315068 LenY=   365282227
 Symmetry not used in FoFDir.
 MinBra= 0 MaxBra= 2 Meth= 1.
 IRaf=       0 NMat=   1 IRICut=       1 DoRegI=T DoRafI=F ISym2E= 0 JSym2E=0.

 Cycle   1  Pass 1  IDiag  1:
 E= -230.391973688231    
 DIIS: error= 3.94D-03 at cycle   1 NSaved=   1.
 NSaved= 1 IEnMin= 1 EnMin= -230.391973688231     IErMin= 1 ErrMin= 3.94D-03
 ErrMax= 3.94D-03 EMaxC= 1.00D-01 BMatC= 8.03D-04 BMatP= 8.03D-04
 IDIUse=3 WtCom= 9.61D-01 WtEn= 3.94D-02
 Coeff-Com:  0.100D+01
 Coeff-En:   0.100D+01
 Coeff:      0.100D+01
 Gap=     0.381 Goal=   None    Shift=    0.000
 GapD=    0.381 DampG=1.000 DampE=1.000 DampFc=1.0000 IDamp=-1.
 RMSDP=6.16D-03 MaxDP=9.68D-02              OVMax= 1.27D-02

 Cycle   2  Pass 1  IDiag  1:
 E= -230.393143842384     Delta-E=       -0.001170154153 Rises=F Damp=F
 DIIS: error= 7.29D-04 at cycle   2 NSaved=   2.
 NSaved= 2 IEnMin= 2 EnMin= -230.393143842384     IErMin= 2 ErrMin= 7.29D-04
 ErrMax= 7.29D-04 EMaxC= 1.00D-01 BMatC= 4.00D-05 BMatP= 8.03D-04
 IDIUse=3 WtCom= 9.93D-01 WtEn= 7.29D-03
 Coeff-Com: -0.209D+00 0.121D+01
 Coeff-En:   0.000D+00 0.100D+01
 Coeff:     -0.208D+00 0.121D+01
 Gap=     0.381 Goal=   None    Shift=    0.000
 RMSDP=3.03D-03 MaxDP=7.32D-02 DE=-1.17D-03 OVMax= 3.56D-03

 Cycle   3  Pass 1  IDiag  1:
 E= -230.393249546914     Delta-E=       -0.000105704530 Rises=F Damp=F
 DIIS: error= 2.16D-04 at cycle   3 NSaved=   3.
 NSaved= 3 IEnMin= 3 EnMin= -230.393249546914     IErMin= 3 ErrMin= 2.16D-04
 ErrMax= 2.16D-04 EMaxC= 1.00D-01 BMatC= 2.95D-06 BMatP= 4.00D-05
 IDIUse=3 WtCom= 9.98D-01 WtEn= 2.16D-03
 Coeff-Com:  0.313D-01-0.311D+00 0.128D+01
 Coeff-En:   0.000D+00 0.000D+00 0.100D+01
 Coeff:      0.312D-01-0.311D+00 0.128D+01
 Gap=     0.381 Goal=   None    Shift=    0.000
 RMSDP=2.24D-04 MaxDP=5.79D-03 DE=-1.06D-04 OVMax= 1.88D-03

 Cycle   4  Pass 1  IDiag  1:
 E= -230.393266393977     Delta-E=       -0.000016847063 Rises=F Damp=F
 DIIS: error= 1.31D-04 at cycle   4 NSaved=   4.
 NSaved= 4 IEnMin= 4 EnMin= -230.393266393977     IErMin= 4 ErrMin= 1.31D-04
 ErrMax= 1.31D-04 EMaxC= 1.00D-01 BMatC= 8.89D-07 BMatP= 2.95D-06
 IDIUse=3 WtCom= 9.99D-01 WtEn= 1.31D-03
 Coeff-Com: -0.195D-01 0.231D+00-0.132D+01 0.211D+01
 Coeff-En:   0.000D+00 0.000D+00 0.000D+00 0.100D+01
 Coeff:     -0.195D-01 0.231D+00-0.132D+01 0.211D+01
 Gap=     0.381 Goal=   None    Shift=    0.000
 RMSDP=2.40D-04 MaxDP=7.04D-03 DE=-1.68D-05 OVMax= 1.82D-03

 Cycle   5  Pass 1  IDiag  1:
 E= -230.393274973113     Delta-E=       -0.000008579135 Rises=F Damp=F
 DIIS: error= 5.68D-05 at cycle   5 NSaved=   5.
 NSaved= 5 IEnMin= 5 EnMin= -230.393274973113     IErMin= 5 ErrMin= 5.68D-05
 ErrMax= 5.68D-05 EMaxC= 1.00D-01 BMatC= 1.45D-07 BMatP= 8.89D-07
 IDIUse=1 WtCom= 1.00D+00 WtEn= 0.00D+00
 Coeff-Com: -0.677D-02 0.569D-01-0.171D+00-0.247D+00 0.137D+01
 Coeff:     -0.677D-02 0.569D-01-0.171D+00-0.247D+00 0.137D+01
 Gap=     0.381 Goal=   None    Shift=    0.000
 RMSDP=2.60D-05 MaxDP=2.75D-04 DE=-8.58D-06 OVMax= 7.94D-04

 Cycle   6  Pass 1  IDiag  1:
 E= -230.393276341014     Delta-E=       -0.000001367901 Rises=F Damp=F
 DIIS: error= 2.01D-05 at cycle   6 NSaved=   6.
 NSaved= 6 IEnMin= 6 EnMin= -230.393276341014     IErMin= 6 ErrMin= 2.01D-05
 ErrMax= 2.01D-05 EMaxC= 1.00D-01 BMatC= 1.36D-08 BMatP= 1.45D-07
 IDIUse=1 WtCom= 1.00D+00 WtEn= 0.00D+00
 Coeff-Com:  0.281D-02-0.342D-01 0.203D+00-0.362D+00 0.900D-01 0.110D+01
 Coeff:      0.281D-02-0.342D-01 0.203D+00-0.362D+00 0.900D-01 0.110D+01
 Gap=     0.381 Goal=   None    Shift=    0.000
 RMSDP=1.62D-05 MaxDP=3.21D-04 DE=-1.37D-06 OVMax= 2.24D-04

 Cycle   7  Pass 1  IDiag  1:
 E= -230.393276428423     Delta-E=       -0.000000087409 Rises=F Damp=F
 DIIS: error= 6.10D-06 at cycle   7 NSaved=   7.
 NSaved= 7 IEnMin= 7 EnMin= -230.393276428423     IErMin= 7 ErrMin= 6.10D-06
 ErrMax= 6.10D-06 EMaxC= 1.00D-01 BMatC= 1.09D-09 BMatP= 1.36D-08
 IDIUse=1 WtCom= 1.00D+00 WtEn= 0.00D+00
 Coeff-Com: -0.563D-03 0.105D-01-0.819D-01 0.200D+00-0.160D+00-0.545D+00
 Coeff-Com:  0.158D+01
 Coeff:     -0.563D-03 0.105D-01-0.819D-01 0.200D+00-0.160D+00-0.545D+00
 Coeff:      0.158D+01
 Gap=     0.381 Goal=   None    Shift=    0.000
 RMSDP=1.91D-05 MaxDP=5.82D-04 DE=-8.74D-08 OVMax= 4.70D-05

 Cycle   8  Pass 1  IDiag  1:
 E= -230.393276434267     Delta-E=       -0.000000005844 Rises=F Damp=F
 DIIS: error= 1.19D-06 at cycle   8 NSaved=   8.
 NSaved= 8 IEnMin= 8 EnMin= -230.393276434267     IErMin= 8 ErrMin= 1.19D-06
 ErrMax= 1.19D-06 EMaxC= 1.00D-01 BMatC= 4.16D-11 BMatP= 1.09D-09
 IDIUse=1 WtCom= 1.00D+00 WtEn= 0.00D+00
 Coeff-Com:  0.918D-04-0.196D-02 0.168D-01-0.476D-01 0.480D-01 0.119D+00
 Coeff-Com: -0.529D+00 0.139D+01
 Coeff:      0.918D-04-0.196D-02 0.168D-01-0.476D-01 0.480D-01 0.119D+00
 Coeff:     -0.529D+00 0.139D+01
 Gap=     0.381 Goal=   None    Shift=    0.000
 RMSDP=2.38D-06 MaxDP=5.95D-05 DE=-5.84D-09 OVMax= 9.47D-06

 Cycle   9  Pass 1  IDiag  1:
 E= -230.393276434462     Delta-E=       -0.000000000195 Rises=F Damp=F
 DIIS: error= 1.47D-07 at cycle   9 NSaved=   9.
 NSaved= 9 IEnMin= 9 EnMin= -230.393276434462     IErMin= 9 ErrMin= 1.47D-07
 ErrMax= 1.47D-07 EMaxC= 1.00D-01 BMatC= 2.39D-12 BMatP= 4.16D-11
 IDIUse=1 WtCom= 1.00D+00 WtEn= 0.00D+00
 Coeff-Com:  0.319D-04-0.699D-03 0.596D-02-0.165D-01 0.160D-01 0.421D-01
 Coeff-Com: -0.173D+00 0.381D+00 0.745D+00
 Coeff:      0.319D-04-0.699D-03 0.596D-02-0.165D-01 0.160D-01 0.421D-01
 Coeff:     -0.173D+00 0.381D+00 0.745D+00
 Gap=     0.381 Goal=   None    Shift=    0.000
[...]
 Calling FoFJK, ICntrl=      2127 FMM=F ISym2X=0 I1Cent= 0 IOpClX= 0 NMat=1 NMatS=1 NMatT=0.
 FoFCou: FMM=F IPFlag=           0 FMFlag=      100000 FMFlg1=         800
         NFxFlg=           0 DoJE=F BraDBF=F KetDBF=F FulRan=T
         Omega=  0.000000  0.000000  1.000000  0.000000  0.000000 ICntrl=    2127 IOpCl=  0
         NMat0=    1 NMatS0=    1 NMatT0=    0 NMatD0=    1 NMtDS0=    0 NMtDT0=    0
         I1Cent=           0 NGrid=           0.
 Symmetry not used in FoFCou.
 Leave Link  703 at Tue Dec  7 13:38:10 2021, MaxMem=  498073600 cpu:       6.6
 (Enter /apps/software//g09/l716.exe)
 Dipole        = 6.54805201D-03-9.14853600D-03 1.00864995D-03
 Polarizability= 0.00000000D+00 0.00000000D+00 0.00000000D+00
                 0.00000000D+00 0.00000000D+00 0.00000000D+00
 -------------------------------------------------------------------
 Center     Atomic                   Forces (Hartrees/Bohr)
 Number     Number              X              Y              Z
 -------------------------------------------------------------------
      1        6          -0.000694658    0.016730663   -0.004956931
      2        6          -0.009229701    0.013162183    0.005138188
      3        6           0.015067239   -0.008239650    0.000292796
      4        6          -0.006029109   -0.015293446   -0.001319770
      5        6           0.015900866    0.001874665   -0.001703057
      6        6          -0.014012608   -0.008610313    0.002702632
      7        1          -0.002972588   -0.000257147   -0.001427338
      8        1           0.002064759    0.000911339    0.001475848
      9        1           0.001196754   -0.001900846    0.000252423
     10        1          -0.000160988   -0.001859091   -0.000104043
     11        1          -0.002002901    0.001173958   -0.000350040
     12        1           0.000872936    0.002307685   -0.000000708
 -------------------------------------------------------------------
 Cartesian Forces:  Max     0.016730663 RMS     0.006936701
 Leave Link  716 at Tue Dec  7 13:38:10 2021, MaxMem=  498073600 cpu:       0.0
 (Enter /apps/software//g09/l123.exe)
 IRC-IRC-IRC-IRC-IRC-IRC-IRC-IRC-IRC-IRC-IRC-IRC-IRC-IRC-IRC-IRC-IRC-IRC
 Pt 20 Step number   1 out of a maximum of  50
 Using modified Bulirsch-Stoer corrector interation.
   Using distance weighted interpolants to fit PES.
    Cycle     1 NS=     2
    Cycle     2 NS=     4 Truncation Error =  0.020287139
    Cycle     3 NS=     6 Truncation Error =  0.035352506
    Cycle     4 NS=     8 Truncation Error =  0.039340182
    Cycle     5 NS=    12 Truncation Error =  0.024386463
    Cycle     6 NS=    16 Truncation Error =  0.011163344
    Cycle     7 NS=    24 Truncation Error =  0.006352423
    Cycle     8 NS=    32 Truncation Error =  0.003044680
    Cycle     9 NS=    48 Truncation Error =  0.008516127
    Cycle    10 NS=    64 Truncation Error =  0.002246595
    Cycle    11 NS=    96 Truncation Error =  0.002135289
    Cycle    12 NS=   128 Truncation Error =  0.001653606
    Cycle    13 NS=   192 Truncation Error =  0.000477229
    Cycle    14 NS=   256 Truncation Error =  0.000084393
    Cycle    15 NS=   384 Truncation Error =  0.000008783
    Cycle    16 NS=   512 Truncation Error =  0.000000642
 BS completed in   16 cycles and    1784 integration steps.
 SUMMARY OF CORRECTOR INTEGRATION:
   Original End Point Energy  =  -231.275557
   Corrected End Point Energy =  -231.275596
   Old End-Start Dist.        =     0.216114
   New End-Start Dist.        =     0.216020
   New End-Old End Dist.      =     0.009240
 CORRECTOR INTEGRATION CONVERGENCE:
   Recorrection delta-x convergence threshold:    0.010000
   Delta-x Convergence Met
 Point Number:  10          Path Number:   2
                    CURRENT STRUCTURE
                Cartesian Coordinates (Ang):                
 ---------------------------------------------------------------------
 Center     Atomic                     Coordinates (Angstroms)
 Number     Number                        X           Y           Z
 ---------------------------------------------------------------------
      1          6                   -1.171049    1.420394   -0.010378
      2          6                   -0.015185    1.837391    0.010195
      3          6                    1.810839    0.307427    0.013661
      4          6                   -1.581047   -0.927564   -0.017379
      5          6                    1.602555   -0.902515   -0.014420
      6          6                   -0.642514   -1.718701    0.019903
      7          1                    0.818634    2.477098    0.165978
      8          1                   -2.222820    1.399623   -0.162832
      9          1                   -2.566528   -0.532560   -0.052786
     10          1                    2.329371    1.234894    0.011170
     11          1                   -0.088616   -2.621877    0.096929
     12          1                    1.751468   -1.953497   -0.053939
 ---------------------------------------------------------------------
   CHANGE IN THE REACTION COORDINATE =    0.21602
   NET REACTION COORDINATE UP TO THIS POINT =    1.22025
  # OF POINTS ALONG THE PATH =  20
  # OF STEPS =   1

 Maximum number of steps reached.
 Calculation of REVERSE path complete.
 Reaction path calculation complete.
 
 Energies reported relative to the TS energy of        -231.268228
 --------------------------------------------------------------------------
    Summary of reaction path following
 --------------------------------------------------------------------------
                        Energy   Rx Coord
   1                   -0.00737  -1.22025
   2                   -0.00570  -1.00423
   3                   -0.00418  -0.78841
   4                   -0.00293  -0.57287
   5                   -0.00198  -0.35903
   6                   -0.00159  -0.24497
   7                   -0.00125  -0.14849
   8                   -0.00063  -0.06421
   9                   -0.00006  -0.01244
  10                   -0.00002  -0.00246
  11                    0.00000   0.00000
  12                   -0.00024   0.02153
  13                   -0.00115   0.11485
  14                   -0.00158   0.20738
  15                   -0.00276   0.41761
  16                   -0.00437   0.63352
  17                   -0.00632   0.84955
  18                   -0.00851   1.06561
  19                   -0.01087   1.28168
  20                   -0.01334   1.49777
  21                   -0.01587   1.71386
 --------------------------------------------------------------------------
 
 Total number of points:                   20
 Total number of gradient calculations:   137
 Total number of Hessian calculations:      1
 IRC-IRC-IRC-IRC-IRC-IRC-IRC-IRC-IRC-IRC-IRC-IRC-IRC-IRC-IRC-IRC-IRC-IRC
 Leave Link  123 at Tue Dec  7 13:38:11 2021, MaxMem=  498073600 cpu:       2.2
 (Enter /apps/software//g09/l202.exe)
                          Input orientation:                          
 ---------------------------------------------------------------------
 Center     Atomic      Atomic             Coordinates (Angstroms)
 Number     Number       Type             X           Y           Z
 ---------------------------------------------------------------------
      1          6           0       -1.171200    1.420186   -0.010039
      2          6           0       -0.015118    1.837033    0.009842
      3          6           0        1.810663    0.307495    0.013627
      4          6           0       -1.580928   -0.927283   -0.017328
      5          6           0        1.602496   -0.902540   -0.014395
      6          6           0       -0.642341   -1.718549    0.019839
      7          1           0        0.819594    2.477080    0.168142
      8          1           0       -2.223472    1.399677   -0.164615
      9          1           0       -2.566806   -0.532706   -0.053753
     10          1           0        2.329493    1.235115    0.011776
     11          1           0       -0.088170   -2.622233    0.098666
     12          1           0        1.751144   -1.954217   -0.055180
 ---------------------------------------------------------------------
                    Distance matrix (angstroms):
                    1          2          3          4          5
     1  C    0.000000
     2  C    1.229098   0.000000
     3  C    3.182790   2.381802   0.000000
     4  C    2.382969   3.177096   3.609504   0.000000
     5  C    3.617798   3.181591   1.228130   3.183521   0.000000
     6  C    3.183118   3.610494   3.181528   1.228181   2.388794
     7  H    2.260981   1.063703   2.390229   4.169723   3.473915
     8  H    1.063762   2.257995   4.183166   2.418532   4.467750
     9  H    2.400711   3.482932   4.457882   1.062532   4.185857
    10  H    3.505650   2.420643   1.062858   4.468580   2.258047
    11  H    4.186398   4.460748   3.492292   2.261556   2.414224
    12  H    4.464161   4.182999   2.263541   3.486936   1.062913
                    6          7          8          9         10
     6  C    0.000000
     7  H    4.445509   0.000000
     8  H    3.501047   3.245269   0.000000
     9  H    2.261682   4.536050   1.965775   0.000000
    10  H    4.189987   1.961307   4.559351   5.206076   0.000000
    11  H    1.062998   5.179947   4.561205   3.245457   4.553216
    12  H    2.406229   4.533657   5.201745   4.545920   3.242037
                   11         12
    11  H    0.000000
    12  H    1.962903   0.000000
 Symmetry turned off by external request.
 Stoichiometry    C6H6
 Framework group  C1[X(C6H6)]
 Deg. of freedom    30
 Full point group                 C1      NOp   1
 Rotational constants (GHZ):      3.5554123      3.5444216      1.7759687
 Leave Link  202 at Tue Dec  7 13:38:11 2021, MaxMem=  498073600 cpu:       0.0
 (Enter /apps/software//g09/l601.exe)
 Copying SCF densities to generalized density rwf, IOpCl= 0 IROHF=0.

 **********************************************************************

            Population analysis using the MP2 density.

 **********************************************************************

 Alpha  occ. eigenvalues --  -11.24043 -11.23998 -11.23981 -11.23717 -11.23666
 Alpha  occ. eigenvalues --  -11.23652  -1.03991  -1.01167  -1.01144  -0.79462
 Alpha  occ. eigenvalues --   -0.79438  -0.72094  -0.70410  -0.65083  -0.64972
 Alpha  occ. eigenvalues --   -0.47733  -0.42115  -0.38545  -0.38512  -0.34764
 Alpha  occ. eigenvalues --   -0.34748
 Alpha virt. eigenvalues --    0.04254   0.04385   0.04430   0.06482   0.06515
 Alpha virt. eigenvalues --    0.08564   0.10643   0.10905   0.11873   0.12662
 Alpha virt. eigenvalues --    0.13792   0.14663   0.16288   0.16476   0.17736
 Alpha virt. eigenvalues --    0.17850   0.17938   0.18608   0.19605   0.19663
 Alpha virt. eigenvalues --    0.19881   0.20677   0.21939   0.22082   0.22617
 Alpha virt. eigenvalues --    0.22661   0.24222   0.24465   0.25142   0.25422
 Alpha virt. eigenvalues --    0.27753   0.27883   0.28165   0.28885   0.31346
 Alpha virt. eigenvalues --    0.33952   0.35630   0.35873   0.36301   0.42636
 Alpha virt. eigenvalues --    0.43737   0.45576   0.54608   0.55317   0.56566
 Alpha virt. eigenvalues --    0.60462   0.66508   0.67352   0.67768   0.69223
 Alpha virt. eigenvalues --    0.74599   0.74829   0.78820   0.80091   0.82931
 Alpha virt. eigenvalues --    0.82983   0.84928   0.87541   0.87629   0.88640
 Alpha virt. eigenvalues --    0.91019   0.95947   0.96360   0.96908   1.01628
 Alpha virt. eigenvalues --    1.01709   1.02425   1.07979   1.08137   1.12271
 Alpha virt. eigenvalues --    1.15262   1.22226   1.26385   1.27239   1.29454
 Alpha virt. eigenvalues --    1.29651   1.30950   1.38437   1.39816   1.45688
 Alpha virt. eigenvalues --    1.45834   1.47245   1.48805   1.49214   1.51044
 Alpha virt. eigenvalues --    1.62366   1.63379   1.65081   1.65565   1.72177
 Alpha virt. eigenvalues --    1.89318   1.90783   1.91287   1.91631   1.92119
 Alpha virt. eigenvalues --    1.92798   1.96005   1.97229   1.98554   2.01806
 Alpha virt. eigenvalues --    2.03124   2.08335   2.10387   2.12169   2.12319
 Alpha virt. eigenvalues --    2.23920   2.32257   2.32462   2.41030   2.41808
 Alpha virt. eigenvalues --    2.47069   2.72051   2.75073   2.76198   2.76802
 Alpha virt. eigenvalues --    2.78002   2.84133   2.91514   2.95780   2.96420
 Alpha virt. eigenvalues --    3.05601   3.07132   3.08540   3.11795   3.12164
 Alpha virt. eigenvalues --    3.15549   3.15722   3.18554   3.19061   3.31156
 Alpha virt. eigenvalues --    3.34534   3.35838   3.38228   3.41159   3.42663
 Alpha virt. eigenvalues --    3.43645   3.47815   3.48575   3.57485   3.60583
 Alpha virt. eigenvalues --    3.77445   3.78668   3.83119   3.83484   4.28401
 Alpha virt. eigenvalues --    4.31994   4.36176  24.69912  24.76169  24.76428
 Alpha virt. eigenvalues --   26.10530  26.13470  26.16893
          Condensed to atoms (all electrons):
              1          2          3          4          5          6
     1  C   12.092492  -6.052283   1.532533  -1.635752  -1.675272   1.638561
     2  C   -6.052283  12.027562  -1.733528   1.426869   1.769776  -1.524740
     3  C    1.532533  -1.733528  10.733804  -1.012285  -4.931906   1.285514
     4  C   -1.635752   1.426869  -1.012285  10.452018   1.290557  -4.588725
     5  C   -1.675272   1.769776  -4.931906   1.290557  11.195075  -1.643060
     6  C    1.638561  -1.524740   1.285514  -4.588725  -1.643060  10.774051
     7  H   -0.674814   0.955100  -0.225603   0.068603   0.244365  -0.069273
     8  H    0.933058  -0.642920   0.068261  -0.198105  -0.070311   0.204538
     9  H   -0.218620   0.195030  -0.031880   0.734154   0.053881  -0.453833
    10  H    0.228361  -0.243696   0.770352  -0.035979  -0.508113   0.058350
    11  H    0.035323  -0.024078   0.107021  -0.383159  -0.143847   0.689926
    12  H   -0.034924   0.046673  -0.421682   0.114737   0.734152  -0.152524
              7          8          9         10         11         12
     1  C   -0.674814   0.933058  -0.218620   0.228361   0.035323  -0.034924
     2  C    0.955100  -0.642920   0.195030  -0.243696  -0.024078   0.046673
     3  C   -0.225603   0.068261  -0.031880   0.770352   0.107021  -0.421682
     4  C    0.068603  -0.198105   0.734154  -0.035979  -0.383159   0.114737
     5  C    0.244365  -0.070311   0.053881  -0.508113  -0.143847   0.734152
     6  C   -0.069273   0.204538  -0.453833   0.058350   0.689926  -0.152524
     7  H    0.613571  -0.042582   0.008769  -0.065637  -0.001000   0.006018
     8  H   -0.042582   0.600859  -0.054573   0.009597   0.004077  -0.001401
     9  H    0.008769  -0.054573   0.559228  -0.002082  -0.020939   0.003335
    10  H   -0.065637   0.009597  -0.002082   0.570175   0.003055  -0.024206
    11  H   -0.001000   0.004077  -0.020939   0.003055   0.544352  -0.033939
    12  H    0.006018  -0.001401   0.003335  -0.024206  -0.033939   0.550272
 Mulliken atomic charges:
              1
     1  C   -0.168662
     2  C   -0.199763
     3  C   -0.140600
     4  C   -0.232933
     5  C   -0.315296
     6  C   -0.218783
     7  H    0.182483
     8  H    0.189504
     9  H    0.227531
    10  H    0.239822
    11  H    0.223208
    12  H    0.213489
 Sum of Mulliken atomic charges =   0.00000
 Mulliken charges with hydrogens summed into heavy atoms:
              1
     1  C    0.020842
     2  C   -0.017280
     3  C    0.099221
     4  C   -0.005401
     5  C   -0.101807
     6  C    0.004425
 Sum of Mulliken charges with hydrogens summed into heavy atoms =   0.00000
 APT atomic charges:
              1
     1  C   -0.509947
     2  C   -0.512200
     3  C   -0.503818
     4  C   -0.551391
     5  C   -0.510966
     6  C   -0.459513
     7  H    0.506569
     8  H    0.514082
     9  H    0.500740
    10  H    0.507599
    11  H    0.511338
    12  H    0.507507
 Sum of APT charges=   0.00000
 APT Atomic charges with hydrogens summed into heavy atoms:
              1
     1  C    0.004135
     2  C   -0.005630
     3  C    0.003781
     4  C   -0.050652
     5  C   -0.003459
     6  C    0.051826
     7  H    0.000000
     8  H    0.000000
     9  H    0.000000
    10  H    0.000000
    11  H    0.000000
    12  H    0.000000
 Sum of APT charges=   0.00000
 Electronic spatial extent (au):  <R**2>=            658.4111
 Charge=              0.0000 electrons
 Dipole moment (field-independent basis, Debye):
    X=              0.0166    Y=             -0.0233    Z=              0.0026  Tot=              0.0287
 Quadrupole moment (field-independent basis, Debye-Ang):
   XX=            -30.9479   YY=            -31.0255   ZZ=            -41.4130
   XY=             -0.0387   XZ=              0.6338   YZ=              0.0887
 Traceless Quadrupole moment (field-independent basis, Debye-Ang):
   XX=              3.5142   YY=              3.4366   ZZ=             -6.9508
   XY=             -0.0387   XZ=              0.6338   YZ=              0.0887
 Octapole moment (field-independent basis, Debye-Ang**2):
  XXX=            -20.3578  YYY=            -12.8123  ZZZ=             -0.0384  XYY=             20.5099
  XXY=             11.8847  XXZ=             -1.4194  XZZ=             -0.0869  YZZ=             -0.0086
  YYZ=              1.4016  XYZ=              1.2271
 Hexadecapole moment (field-independent basis, Debye-Ang**3):
 XXXX=           -416.7048 YYYY=           -417.5798 ZZZZ=            -52.5714 XXXY=              0.5615
 XXXZ=              1.8768 YYYX=             -0.2390 YYYZ=              0.8035 ZZZX=             -1.5135
 ZZZY=             -0.1973 XXYY=           -138.7364 XXZZ=            -93.3765 YYZZ=            -93.0338
 XXYZ=             -0.4451 YYXZ=              1.0819 ZZXY=              0.0297
 N-N= 1.730763349612D+02 E-N=-8.840168050357D+02  KE= 2.313653820049D+02
  Exact polarizability:   0.000   0.000   0.000   0.000   0.000   0.000
 Approx polarizability:  79.673  -0.185  79.847   0.201   0.032  41.062
 No NMR shielding tensors so no spin-rotation constants.
 Leave Link  601 at Tue Dec  7 13:38:11 2021, MaxMem=  498073600 cpu:       0.9
 (Enter /apps/software//g09/l716.exe)
 Dipole        = 6.54805201D-03-9.14853600D-03 1.00864995D-03
 Polarizability= 0.00000000D+00 0.00000000D+00 0.00000000D+00
                 0.00000000D+00 0.00000000D+00 0.00000000D+00
 -------------------------------------------------------------------
 Center     Atomic                   Forces (Hartrees/Bohr)
 Number     Number              X              Y              Z
 -------------------------------------------------------------------
      1        6          -0.000694658    0.016730663   -0.004956931
      2        6          -0.009229701    0.013162183    0.005138188
      3        6           0.015067239   -0.008239650    0.000292796
      4        6          -0.006029109   -0.015293446   -0.001319770
      5        6           0.015900866    0.001874665   -0.001703057
      6        6          -0.014012608   -0.008610313    0.002702632
      7        1          -0.002972588   -0.000257147   -0.001427338
      8        1           0.002064759    0.000911339    0.001475848
      9        1           0.001196754   -0.001900846    0.000252423
     10        1          -0.000160988   -0.001859091   -0.000104043
     11        1          -0.002002901    0.001173958   -0.000350040
     12        1           0.000872936    0.002307685   -0.000000708
 -------------------------------------------------------------------
 Cartesian Forces:  Max     0.016730663 RMS     0.006936701
 Leave Link  716 at Tue Dec  7 13:38:11 2021, MaxMem=  498073600 cpu:       0.0
 (Enter /apps/software//g09/l9999.exe)

 This type of calculation cannot be archived.


 EDUCATION WITHOUT COMMON SENSE IS A LOAD OF BOOKS ON THE BACK OF AN ASS.
 Job cpu time:  0 days  4 hours  1 minutes 11.6 seconds.
 File lengths (MBytes):  RWF=   4144 Int=      0 D2E=      0 Chk=      6 Scr=      1
 Normal termination of Gaussian 09 at Tue Dec  7 13:38:11 2021.
