 Entering Gaussian System, Link 0=g09
 Initial command:
 /apps/software//g09/l1.exe /scratch/itamar/2429.cluster.abaxnet/Gau-8563.inp -scrdir=/scratch/itamar/2429.cluster.abaxnet/
 Entering Link 1 = /apps/software//g09/l1.exe PID=      8564.
  
 Copyright (c) 1988,1990,1992,1993,1995,1998,2003,2009, Gaussian, Inc.
                  All Rights Reserved.
  
 This is part of the Gaussian(R) 09 program.  It is based on
 the Gaussian(R) 03 system (copyright 2003, Gaussian, Inc.),
 the Gaussian(R) 98 system (copyright 1998, Gaussian, Inc.),
 the Gaussian(R) 94 system (copyright 1995, Gaussian, Inc.),
 the Gaussian 92(TM) system (copyright 1992, Gaussian, Inc.),
 the Gaussian 90(TM) system (copyright 1990, Gaussian, Inc.),
 the Gaussian 88(TM) system (copyright 1988, Gaussian, Inc.),
 the Gaussian 86(TM) system (copyright 1986, Carnegie Mellon
 University), and the Gaussian 82(TM) system (copyright 1983,
 Carnegie Mellon University). Gaussian is a federally registered
 trademark of Gaussian, Inc.
  
 This software contains proprietary and confidential information,
 including trade secrets, belonging to Gaussian, Inc.
  
 This software is provided under written license and may be
 used, copied, transmitted, or stored only in accord with that
 written license.
  
 The following legend is applicable only to US Government
 contracts under FAR:
  
                    RESTRICTED RIGHTS LEGEND
  
 Use, reproduction and disclosure by the US Government is
 subject to restrictions as set forth in subparagraphs (a)
 and (c) of the Commercial Computer Software - Restricted
 Rights clause in FAR 52.227-19.
  
 Gaussian, Inc.
 340 Quinnipiac St., Bldg. 40, Wallingford CT 06492
  
  
 ---------------------------------------------------------------
 Warning -- This program may not be used in any manner that
 competes with the business of Gaussian, Inc. or will provide
 assistance to any competitor of Gaussian, Inc.  The licensee
 of this program is prohibited from giving any competitor of
 Gaussian, Inc. access to this program.  By using this program,
 the user acknowledges that Gaussian, Inc. is engaged in the
 business of creating and licensing software in the field of
 computational chemistry and represents and warrants to the
 licensee that it is not a competitor of Gaussian, Inc. and that
 it will not use this program in any manner prohibited above.
 ---------------------------------------------------------------
  

 Cite this work as:
 Gaussian 09, Revision A.02,
 M. J. Frisch, G. W. Trucks, H. B. Schlegel, G. E. Scuseria, 
 M. A. Robb, J. R. Cheeseman, G. Scalmani, V. Barone, B. Mennucci, 
 G. A. Petersson, H. Nakatsuji, M. Caricato, X. Li, H. P. Hratchian, 
 A. F. Izmaylov, J. Bloino, G. Zheng, J. L. Sonnenberg, M. Hada, 
 M. Ehara, K. Toyota, R. Fukuda, J. Hasegawa, M. Ishida, T. Nakajima, 
 Y. Honda, O. Kitao, H. Nakai, T. Vreven, J. A. Montgomery, Jr., 
 J. E. Peralta, F. Ogliaro, M. Bearpark, J. J. Heyd, E. Brothers, 
 K. N. Kudin, V. N. Staroverov, R. Kobayashi, J. Normand, 
 K. Raghavachari, A. Rendell, J. C. Burant, S. S. Iyengar, J. Tomasi, 
 M. Cossi, N. Rega, J. M. Millam, M. Klene, J. E. Knox, J. B. Cross, 
 V. Bakken, C. Adamo, J. Jaramillo, R. Gomperts, R. E. Stratmann, 
 O. Yazyev, A. J. Austin, R. Cammi, C. Pomelli, J. W. Ochterski, 
 R. L. Martin, K. Morokuma, V. G. Zakrzewski, G. A. Voth, 
 P. Salvador, J. J. Dannenberg, S. Dapprich, A. D. Daniels, 
 O. Farkas, J. B. Foresman, J. V. Ortiz, J. Cioslowski, 
 and D. J. Fox, Gaussian, Inc., Wallingford CT, 2009.
 
 ******************************************
 Gaussian 09:  EM64L-G09RevA.02 11-Jun-2009
                 3-Dec-2021 
 ******************************************
 %Mem=3800MB
 %NProcShared=6
 Will use up to    6 processors via shared memory.
 %chk=/home/itamar/Aromaticity-test-set/T5-Pyramid/10/pyramid-10.chk
 -----------------------------
 #P MP2/6-311++G** DENSITY=MP2
 -----------------------------
 1/30=1,38=1/1;
 2/12=2,17=6,18=5,40=1/2;
 3/5=4,6=6,7=1111,11=9,16=1,25=1,30=1,71=1/1,2,3;
 4//1;
 5/5=2,38=5/2;
 8/6=4,10=2/1;
 9/15=1,16=-3/6;
 10/5=1,13=10/2;
 6/7=2,8=2,9=2,10=2,22=2/1;
 99/5=1,9=1/99;
 Leave Link    1 at Fri Dec  3 12:10:35 2021, MaxMem=  498073600 cpu:       0.2
 (Enter /apps/software//g09/l101.exe)
 ----------
 Pyramid-10
 ----------
 Symbolic Z-matrix:
 Charge =  0 Multiplicity = 1
 6                    -1.20837   0.69767  -0.0269 
 6                    -1.20837  -0.69767  -0.0269 
 6                     0.       -1.3954   -0.02692 
 6                     1.20837  -0.69767  -0.0269 
 6                     1.20837   0.69767  -0.0269 
 6                     0.        1.3954   -0.02692 
 1                    -2.1335    1.23172   0.16145 
 1                    -2.1335   -1.23172   0.16145 
 1                     0.       -2.46361   0.16144 
 1                     2.1335   -1.23172   0.16145 
 1                     2.1335    1.23172   0.16145 
 1                     0.        2.46361   0.16144 
 
 NAtoms=     12 NQM=     12 NQMF=      0 NMic=      0 NMicF=      0 NTot=     12.
                    Isotopes and Nuclear Properties:
 (Nuclear quadrupole moments (NQMom) in fm**2, nuclear magnetic moments (NMagM)
  in nuclear magnetons)

  Atom         1           2           3           4           5           6           7           8           9          10
 IAtWgt=          12          12          12          12          12          12           1           1           1           1
 AtmWgt=  12.0000000  12.0000000  12.0000000  12.0000000  12.0000000  12.0000000   1.0078250   1.0078250   1.0078250   1.0078250
 NucSpn=           0           0           0           0           0           0           1           1           1           1
 AtZEff=   0.0000000   0.0000000   0.0000000   0.0000000   0.0000000   0.0000000   0.0000000   0.0000000   0.0000000   0.0000000
 NQMom=    0.0000000   0.0000000   0.0000000   0.0000000   0.0000000   0.0000000   0.0000000   0.0000000   0.0000000   0.0000000
 NMagM=    0.0000000   0.0000000   0.0000000   0.0000000   0.0000000   0.0000000   2.7928460   2.7928460   2.7928460   2.7928460

  Atom        11          12
 IAtWgt=           1           1
 AtmWgt=   1.0078250   1.0078250
 NucSpn=           1           1
 AtZEff=   0.0000000   0.0000000
 NQMom=    0.0000000   0.0000000
 NMagM=    2.7928460   2.7928460
 Leave Link  101 at Fri Dec  3 12:10:35 2021, MaxMem=  498073600 cpu:       0.2
 (Enter /apps/software//g09/l202.exe)
                          Input orientation:                          
 ---------------------------------------------------------------------
 Center     Atomic      Atomic             Coordinates (Angstroms)
 Number     Number       Type             X           Y           Z
 ---------------------------------------------------------------------
      1          6           0       -1.208367    0.697670   -0.026902
      2          6           0       -1.208367   -0.697670   -0.026902
      3          6           0        0.000000   -1.395402   -0.026919
      4          6           0        1.208367   -0.697670   -0.026902
      5          6           0        1.208367    0.697670   -0.026902
      6          6           0        0.000000    1.395402   -0.026919
      7          1           0       -2.133496    1.231724    0.161453
      8          1           0       -2.133496   -1.231724    0.161453
      9          1           0        0.000000   -2.463608    0.161435
     10          1           0        2.133496   -1.231724    0.161453
     11          1           0        2.133496    1.231724    0.161453
     12          1           0        0.000000    2.463608    0.161435
 ---------------------------------------------------------------------
                    Distance matrix (angstroms):
                    1          2          3          4          5
     1  C    0.000000
     2  C    1.395340   0.000000
     3  C    2.416837   1.395343   0.000000
     4  C    2.790623   2.416734   1.395343   0.000000
     5  C    2.416734   2.790623   2.416837   1.395340   0.000000
     6  C    1.395343   2.416837   2.790804   2.416837   1.395343
     7  H    1.084691   2.148000   3.389555   3.863429   3.389504
     8  H    2.148000   1.084691   2.148041   3.389504   3.863429
     9  H    3.389587   2.148059   1.084685   2.148059   3.389587
    10  H    3.863429   3.389504   2.148041   1.084691   2.148000
    11  H    3.389504   3.863429   3.389555   2.148000   1.084691
    12  H    2.148059   3.389587   3.863604   3.389587   2.148059
                    6          7          8          9         10
     6  C    0.000000
     7  H    2.148041   0.000000
     8  H    3.389555   2.463448   0.000000
     9  H    3.863604   4.266999   2.463604   0.000000
    10  H    3.389555   4.927047   4.266992   2.463604   0.000000
    11  H    2.148041   4.266992   4.927047   4.266999   2.463448
    12  H    1.084685   2.463604   4.266999   4.927216   4.266999
                   11         12
    11  H    0.000000
    12  H    2.463604   0.000000
 Stoichiometry    C6H6
 Framework group  C2V[SGV(C2H2),X(C4H4)]
 Deg. of freedom     9
 Full point group                 C2V     NOp   4
 Largest Abelian subgroup         C2V     NOp   4
 Largest concise Abelian subgroup C2V     NOp   4
                         Standard orientation:                         
 ---------------------------------------------------------------------
 Center     Atomic      Atomic             Coordinates (Angstroms)
 Number     Number       Type             X           Y           Z
 ---------------------------------------------------------------------
      1          6           0       -1.208367    0.697670   -0.026902
      2          6           0       -1.208367   -0.697670   -0.026902
      3          6           0        0.000000   -1.395402   -0.026919
      4          6           0        1.208367   -0.697670   -0.026902
      5          6           0        1.208367    0.697670   -0.026902
      6          6           0        0.000000    1.395402   -0.026919
      7          1           0       -2.133496    1.231724    0.161453
      8          1           0       -2.133496   -1.231724    0.161453
      9          1           0        0.000000   -2.463608    0.161435
     10          1           0        2.133496   -1.231724    0.161453
     11          1           0        2.133496    1.231724    0.161453
     12          1           0        0.000000    2.463608    0.161435
 ---------------------------------------------------------------------
 Rotational constants (GHZ):      5.7018098      5.7012919      2.8571547
 Leave Link  202 at Fri Dec  3 12:10:35 2021, MaxMem=  498073600 cpu:       0.0
 (Enter /apps/software//g09/l301.exe)
 Standard basis: 6-311++G(d,p) (5D, 7F)
 Ernie: Thresh=  0.10000D-02 Tol=  0.10000D-05 Strict=F.
 There are    51 symmetry adapted basis functions of A1  symmetry.
 There are    36 symmetry adapted basis functions of A2  symmetry.
 There are    36 symmetry adapted basis functions of B1  symmetry.
 There are    51 symmetry adapted basis functions of B2  symmetry.
 Integral buffers will be    131072 words long.
 Raffenetti 1 integral format.
 Two-electron integral symmetry is turned on.
   174 basis functions,   270 primitive gaussians,   180 cartesian basis functions
    21 alpha electrons       21 beta electrons
       nuclear repulsion energy       203.5182941873 Hartrees.
 IExCor=    0 DFT=F Ex=HF Corr=None ExCW=0 ScaHFX=  1.000000
 ScaDFX=  1.000000  1.000000  1.000000  1.000000 ScalE2=  1.000000  1.000000
 IRadAn=      0 IRanWt=     -1 IRanGd=            0 ICorTp=0
 NAtoms=   12 NActive=   12 NUniq=    4 SFac= 3.00D+00 NAtFMM=   80 NAOKFM=F Big=F
 Leave Link  301 at Fri Dec  3 12:10:36 2021, MaxMem=  498073600 cpu:       0.2
 (Enter /apps/software//g09/l302.exe)
 NPDir=0 NMtPBC=     1 NCelOv=     1 NCel=       1 NClECP=     1 NCelD=      1
         NCelK=      1 NCelE2=     1 NClLst=     1 CellRange=     0.0.
 One-electron integrals computed using PRISM.
 One-electron integral symmetry used in STVInt
 NBasis=   174 RedAO= T  NBF=    51    36    36    51
 NBsUse=   173 1.00D-06 NBFU=    51    36    36    50
 Leave Link  302 at Fri Dec  3 12:10:36 2021, MaxMem=  498073600 cpu:       1.3
 (Enter /apps/software//g09/l303.exe)
 DipDrv:  MaxL=1.
 Leave Link  303 at Fri Dec  3 12:10:36 2021, MaxMem=  498073600 cpu:       0.2
 (Enter /apps/software//g09/l401.exe)
 Harris functional with IExCor=  205 diagonalized for initial guess.
 ExpMin= 3.60D-02 ExpMax= 4.56D+03 ExpMxC= 6.82D+02 IAcc=3 IRadAn=         0 AccDes= 0.00D+00
 HarFok:  IExCor=  205 AccDes= 0.00D+00 IRadAn=         0 IDoV= 1
 ScaDFX=  1.000000  1.000000  1.000000  1.000000
 FoFCou: FMM=F IPFlag=           0 FMFlag=      100000 FMFlg1=           0
         NFxFlg=           0 DoJE=T BraDBF=F KetDBF=T FulRan=T
         Omega=  0.000000  0.000000  1.000000  0.000000  0.000000 ICntrl=     500 IOpCl=  0
         NMat0=    1 NMatS0=    1 NMatT0=    0 NMatD0=    1 NMtDS0=    0 NMtDT0=    0
         I1Cent=           4 NGrid=           0.
 Petite list used in FoFCou.
 Harris En= -231.145543753658    
 Initial guess orbital symmetries:
       Occupied  (A1) (B2) (B1) (A1) (A2) (B2) (A1) (B2) (B1) (A1)
                 (A2) (A1) (B1) (B2) (B2) (B1) (A1) (A1) (A2) (B2)
                 (B1)
       Virtual   (A1) (A2) (A1) (B2) (B1) (B2) (A1) (A2) (A1) (A1)
                 (B2) (B1) (B2) (B1) (A1) (A2) (A1) (B1) (B2) (B1)
                 (B2) (A1) (A2) (A1) (A2) (B1) (B2) (B2) (A1) (B2)
                 (A1) (A2) (A1) (A2) (B1) (B2) (B2) (A2) (B1) (B2)
                 (A1) (A2) (B1) (A2) (A1) (B2) (A1) (B1) (B2) (A1)
                 (A2) (A1) (B1) (B2) (A2) (A1) (B2) (A2) (A1) (B2)
                 (B1) (B2) (A1) (B2) (B1) (B2) (A2) (A1) (A2) (B1)
                 (B2) (A1) (B1) (A2) (A1) (B2) (B1) (A1) (A2) (B2)
                 (A1) (B1) (B2) (B1) (A1) (A2) (A1) (B2) (B1) (B2)
                 (A2) (A1) (A1) (B2) (B1) (A1) (A2) (B1) (B1) (B2)
                 (A2) (B2) (B1) (A2) (A1) (B2) (A2) (A1) (B2) (A2)
                 (A1) (A1) (A2) (B2) (B1) (B1) (B2) (A1) (B2) (A1)
                 (B2) (B1) (B2) (A2) (A1) (B1) (B2) (A2) (A1) (A2)
                 (A2) (A1) (B1) (B2) (A1) (A2) (B2) (B1) (A1) (B2)
                 (A2) (A1) (B2) (B1) (B2) (A2) (A1) (B1) (B2) (A1)
                 (A2) (B2)
 The electronic state of the initial guess is 1-A1.
 Leave Link  401 at Fri Dec  3 12:10:36 2021, MaxMem=  498073600 cpu:       2.3
 (Enter /apps/software//g09/l502.exe)
 Closed shell SCF:
 Requested convergence on RMS density matrix=1.00D-08 within 128 cycles.
 Requested convergence on MAX density matrix=1.00D-06.
 Requested convergence on             energy=1.00D-06.
 No special actions if energy rises.
 Using DIIS extrapolation, IDIIS=  1040.
 Integral symmetry usage will be decided dynamically.
 Keep R1 ints in memory in canonical form, NReq=135773479.
 IEnd=      118490 IEndB=      118490 NGot=   498073600 MDV=   365314108
 LenX=   365314108 LenY=   365281267
 Symmetry not used in FoFDir.
 MinBra= 0 MaxBra= 2 Meth= 1.
 IRaf=       0 NMat=   1 IRICut=       1 DoRegI=T DoRafI=F ISym2E= 0 JSym2E=0.

 Cycle   1  Pass 1  IDiag  1:
 E= -230.445569642369    
 DIIS: error= 6.38D-02 at cycle   1 NSaved=   1.
 NSaved= 1 IEnMin= 1 EnMin= -230.445569642369     IErMin= 1 ErrMin= 6.38D-02
 ErrMax= 6.38D-02 EMaxC= 1.00D-01 BMatC= 5.17D-01 BMatP= 5.17D-01
 IDIUse=3 WtCom= 3.62D-01 WtEn= 6.38D-01
 Coeff-Com:  0.100D+01
 Coeff-En:   0.100D+01
 Coeff:      0.100D+01
 Gap=     0.328 Goal=   None    Shift=    0.000
 GapD=    0.328 DampG=1.000 DampE=0.500 DampFc=0.5000 IDamp=-1.
 Damping current iteration by 5.00D-01
 RMSDP=3.67D-03 MaxDP=7.09D-02              OVMax= 1.60D-01

 Cycle   2  Pass 1  IDiag  1:
 E= -230.604860979041     Delta-E=       -0.159291336672 Rises=F Damp=T
 DIIS: error= 3.37D-02 at cycle   2 NSaved=   2.
 NSaved= 2 IEnMin= 2 EnMin= -230.604860979041     IErMin= 2 ErrMin= 3.37D-02
 ErrMax= 3.37D-02 EMaxC= 1.00D-01 BMatC= 1.11D-01 BMatP= 5.17D-01
 IDIUse=3 WtCom= 6.63D-01 WtEn= 3.37D-01
 Coeff-Com: -0.685D+00 0.168D+01
 Coeff-En:   0.000D+00 0.100D+01
 Coeff:     -0.454D+00 0.145D+01
 Gap=     0.388 Goal=   None    Shift=    0.000
 RMSDP=2.07D-03 MaxDP=4.70D-02 DE=-1.59D-01 OVMax= 4.95D-02

 Cycle   3  Pass 1  IDiag  1:
 E= -230.747393128122     Delta-E=       -0.142532149082 Rises=F Damp=F
 DIIS: error= 3.34D-03 at cycle   3 NSaved=   3.
 NSaved= 3 IEnMin= 3 EnMin= -230.747393128122     IErMin= 3 ErrMin= 3.34D-03
 ErrMax= 3.34D-03 EMaxC= 1.00D-01 BMatC= 1.11D-03 BMatP= 1.11D-01
 IDIUse=3 WtCom= 9.67D-01 WtEn= 3.34D-02
 Coeff-Com: -0.840D-01 0.130D+00 0.954D+00
 Coeff-En:   0.000D+00 0.000D+00 0.100D+01
 Coeff:     -0.812D-01 0.126D+00 0.955D+00
 Gap=     0.380 Goal=   None    Shift=    0.000
 RMSDP=3.64D-04 MaxDP=8.25D-03 DE=-1.43D-01 OVMax= 8.82D-03

 Cycle   4  Pass 1  IDiag  1:
 E= -230.748443463652     Delta-E=       -0.001050335529 Rises=F Damp=F
 DIIS: error= 6.09D-04 at cycle   4 NSaved=   4.
 NSaved= 4 IEnMin= 4 EnMin= -230.748443463652     IErMin= 4 ErrMin= 6.09D-04
 ErrMax= 6.09D-04 EMaxC= 1.00D-01 BMatC= 2.50D-05 BMatP= 1.11D-03
 IDIUse=3 WtCom= 9.94D-01 WtEn= 6.09D-03
 Coeff-Com:  0.779D-02-0.190D-01-0.101D-01 0.102D+01
 Coeff-En:   0.000D+00 0.000D+00 0.000D+00 0.100D+01
 Coeff:      0.774D-02-0.189D-01-0.101D-01 0.102D+01
 Gap=     0.379 Goal=   None    Shift=    0.000
 RMSDP=9.26D-05 MaxDP=1.56D-03 DE=-1.05D-03 OVMax= 1.80D-03

 Cycle   5  Pass 1  IDiag  1:
 E= -230.748486560386     Delta-E=       -0.000043096735 Rises=F Damp=F
 DIIS: error= 1.37D-04 at cycle   5 NSaved=   5.
 NSaved= 5 IEnMin= 5 EnMin= -230.748486560386     IErMin= 5 ErrMin= 1.37D-04
 ErrMax= 1.37D-04 EMaxC= 1.00D-01 BMatC= 1.71D-06 BMatP= 2.50D-05
 IDIUse=3 WtCom= 9.99D-01 WtEn= 1.37D-03
 Coeff-Com:  0.288D-02-0.370D-02-0.426D-01-0.190D+00 0.123D+01
 Coeff-En:   0.000D+00 0.000D+00 0.000D+00 0.000D+00 0.100D+01
 Coeff:      0.288D-02-0.370D-02-0.425D-01-0.190D+00 0.123D+01
 Gap=     0.379 Goal=   None    Shift=    0.000
 RMSDP=3.46D-05 MaxDP=6.81D-04 DE=-4.31D-05 OVMax= 6.65D-04

 Cycle   6  Pass 1  IDiag  1:
 E= -230.748490177293     Delta-E=       -0.000003616907 Rises=F Damp=F
 DIIS: error= 9.54D-06 at cycle   6 NSaved=   6.
 NSaved= 6 IEnMin= 6 EnMin= -230.748490177293     IErMin= 6 ErrMin= 9.54D-06
 ErrMax= 9.54D-06 EMaxC= 1.00D-01 BMatC= 9.70D-09 BMatP= 1.71D-06
 IDIUse=1 WtCom= 1.00D+00 WtEn= 0.00D+00
 Coeff-Com: -0.301D-03 0.422D-03 0.517D-02 0.146D-01-0.153D+00 0.113D+01
 Coeff:     -0.301D-03 0.422D-03 0.517D-02 0.146D-01-0.153D+00 0.113D+01
 Gap=     0.380 Goal=   None    Shift=    0.000
 RMSDP=3.62D-06 MaxDP=5.00D-05 DE=-3.62D-06 OVMax= 4.84D-05

 Cycle   7  Pass 1  IDiag  1:
 E= -230.748490198269     Delta-E=       -0.000000020976 Rises=F Damp=F
 DIIS: error= 2.63D-06 at cycle   7 NSaved=   7.
 NSaved= 7 IEnMin= 7 EnMin= -230.748490198269     IErMin= 7 ErrMin= 2.63D-06
 ErrMax= 2.63D-06 EMaxC= 1.00D-01 BMatC= 5.62D-10 BMatP= 9.70D-09
 IDIUse=1 WtCom= 1.00D+00 WtEn= 0.00D+00
 Coeff-Com: -0.108D-03 0.145D-03 0.161D-02 0.620D-02-0.475D-01 0.119D+00
 Coeff-Com:  0.920D+00
 Coeff:     -0.108D-03 0.145D-03 0.161D-02 0.620D-02-0.475D-01 0.119D+00
 Coeff:      0.920D+00
 Gap=     0.380 Goal=   None    Shift=    0.000
 RMSDP=5.45D-07 MaxDP=7.35D-06 DE=-2.10D-08 OVMax= 7.01D-06

 Cycle   8  Pass 1  IDiag  1:
 E= -230.748490199118     Delta-E=       -0.000000000849 Rises=F Damp=F
 DIIS: error= 4.65D-07 at cycle   8 NSaved=   8.
 NSaved= 8 IEnMin= 8 EnMin= -230.748490199118     IErMin= 8 ErrMin= 4.65D-07
 ErrMax= 4.65D-07 EMaxC= 1.00D-01 BMatC= 3.01D-11 BMatP= 5.62D-10
 IDIUse=1 WtCom= 1.00D+00 WtEn= 0.00D+00
 Coeff-Com:  0.205D-04-0.279D-04-0.400D-03-0.121D-02 0.119D-01-0.828D-01
 Coeff-Com: -0.403D-01 0.111D+01
 Coeff:      0.205D-04-0.279D-04-0.400D-03-0.121D-02 0.119D-01-0.828D-01
 Coeff:     -0.403D-01 0.111D+01
 Gap=     0.380 Goal=   None    Shift=    0.000
 RMSDP=1.77D-07 MaxDP=2.83D-06 DE=-8.49D-10 OVMax= 2.54D-06

 Cycle   9  Pass 1  IDiag  1:
 E= -230.748490199191     Delta-E=       -0.000000000073 Rises=F Damp=F
 DIIS: error= 1.27D-07 at cycle   9 NSaved=   9.
 NSaved= 9 IEnMin= 9 EnMin= -230.748490199191     IErMin= 9 ErrMin= 1.27D-07
 ErrMax= 1.27D-07 EMaxC= 1.00D-01 BMatC= 9.44D-13 BMatP= 3.01D-11
 IDIUse=1 WtCom= 1.00D+00 WtEn= 0.00D+00
 Coeff-Com: -0.540D-05 0.732D-05 0.112D-03 0.319D-03-0.328D-02 0.264D-01
 Coeff-Com: -0.807D-02-0.371D+00 0.136D+01
 Coeff:     -0.540D-05 0.732D-05 0.112D-03 0.319D-03-0.328D-02 0.264D-01
 Coeff:     -0.807D-02-0.371D+00 0.136D+01
 Gap=     0.380 Goal=   None    Shift=    0.000
 RMSDP=3.51D-08 MaxDP=5.68D-07 DE=-7.26D-11 OVMax= 8.23D-07

 Cycle  10  Pass 1  IDiag  1:
 E= -230.748490199194     Delta-E=       -0.000000000003 Rises=F Damp=F
 DIIS: error= 3.09D-08 at cycle  10 NSaved=  10.
 NSaved=10 IEnMin=10 EnMin= -230.748490199194     IErMin=10 ErrMin= 3.09D-08
 ErrMax= 3.09D-08 EMaxC= 1.00D-01 BMatC= 5.99D-14 BMatP= 9.44D-13
 IDIUse=1 WtCom= 1.00D+00 WtEn= 0.00D+00
 Coeff-Com: -0.895D-06 0.132D-05 0.140D-04 0.443D-04-0.440D-03 0.295D-02
 Coeff-Com:  0.132D-02-0.379D-01-0.275D-01 0.106D+01
 Coeff:     -0.895D-06 0.132D-05 0.140D-04 0.443D-04-0.440D-03 0.295D-02
 Coeff:      0.132D-02-0.379D-01-0.275D-01 0.106D+01
 Gap=     0.380 Goal=   None    Shift=    0.000
 RMSDP=5.48D-09 MaxDP=1.01D-07 DE=-3.07D-12 OVMax= 1.74D-07

 SCF Done:  E(RHF) =  -230.748490199     A.U. after   10 cycles
             Convg  =    0.5476D-08             -V/T =  2.0013
 KE= 2.304495622970D+02 PE=-9.438026224978D+02 EE= 2.790862758142D+02
 Leave Link  502 at Fri Dec  3 12:10:44 2021, MaxMem=  498073600 cpu:      47.2
 (Enter /apps/software//g09/l801.exe)
 ExpMin= 3.60D-02 ExpMax= 4.56D+03 ExpMxC= 6.82D+02 IAcc=3 IRadAn=         5 AccDes= 0.00D+00
 HarFok:  IExCor=  205 AccDes= 0.00D+00 IRadAn=         5 IDoV=-2
 ScaDFX=  1.000000  1.000000  1.000000  1.000000
 Largest valence mixing into a core orbital is  1.52D-04
 Largest core mixing into a valence orbital is  3.99D-05
 Range of M.O.s used for correlation:     7   173
 NBasis=   174 NAE=    21 NBE=    21 NFC=     6 NFV=     0
 NROrb=    167 NOA=    15 NOB=    15 NVA=   152 NVB=   152

 **** Warning!!: The largest alpha MO coefficient is  0.98637991D+02

 Leave Link  801 at Fri Dec  3 12:10:44 2021, MaxMem=  498073600 cpu:       1.2
 (Enter /apps/software//g09/l906.exe)
 Frozen-core derivative calculation, NFC=   6 NFV=   0.
 FulOut=F Deriv=T AODrv=F NAtomX=    12
   MMem=         574  MDisk=          15 MDiskD=          15
  W3Min=      653940 MinDsk=     1009670 NBas6D=         180
 NBas2D=       16542    NTT=       16290    LW2=     2040000
    MDV=   497696958 MDiskM=       38248 NBas2p=        4804
 Fully in-core method, ICMem=   280915704.
 IMap=   1   2   3   4   5   6   7   8   9  10  11  12  13  14  15  16  17  18  19  20
 IMap=  21
 JobTyp=1 Pass  1 fully in-core, NPsUse=  6.
 Compute canonical integrals, IntTyp=   4.
 Symmetry not used in FoFDir.
 MinBra= 0 MaxBra= 2 Meth= 1.
 IRaf=       0 NMat=   1 IRICut=       1 DoRegI=T DoRafI=F ISym2E= 0 JSym2E=0.
 Spin components of T(2) and E(2):
     alpha-alpha T2 =       0.4251921700D-01 E2=     -0.1079693876D+00
     alpha-beta  T2 =       0.2236872180D+00 E2=     -0.6135931092D+00
     beta-beta   T2 =       0.4251921700D-01 E2=     -0.1079693876D+00
 The integrals were generated   1 times.
 ANorm=    0.1143995477D+01
 E2 =    -0.8295318843D+00 EUMP2 =    -0.23157802208352D+03
 Leave Link  906 at Fri Dec  3 12:11:11 2021, MaxMem=  498073600 cpu:     160.5
 (Enter /apps/software//g09/l1002.exe)
 Minotr:  Closed shell wavefunction.
          Computing MP2/KS-MP2 derivatives.
          Using Z-Vector for PSCF gradient.
          Skipping F1 and S1 gradient terms here.
          Frozen-core window.
          Direct CPHF calculation.
          Differentiating once with respect to electric field.
                with respect to dipole field.
          Electric field/nuclear overlap derivatives assumed to be zero.
          Using symmetry in CPHF.
          Requested convergence is 1.0D-10 RMS, and 1.0D-09 maximum.
          NewPWx=F KeepS1=T KeepF1=T KeepIn=T MapXYZ=F SortEE=F KeepMc=T.
          MDV=     498073500 using IRadAn=       0.
          Keep R1 ints in memory in canonical form, NReq=133512101.
 Symmetry not used in FoFDir.
 MinBra= 0 MaxBra= 2 Meth= 1.
 IRaf=       0 NMat=   1 IRICut=       1 DoRegI=T DoRafI=F ISym2E= 0 JSym2E=0.
          Solving linear equations separately, MaxMat=       0.
          There are     1 degrees of freedom in the 1st order CPHF.  IDoFFX=0.
 LinEq1:  Iter=  0 NonCon=     1 RMS=3.42D-03 Max=7.08D-02
 AX will form     1 AO Fock derivatives at one time.
 LinEq1:  Iter=  1 NonCon=     1 RMS=8.36D-04 Max=1.49D-02
 LinEq1:  Iter=  2 NonCon=     1 RMS=2.35D-04 Max=5.33D-03
 LinEq1:  Iter=  3 NonCon=     1 RMS=4.96D-05 Max=8.03D-04
 LinEq1:  Iter=  4 NonCon=     1 RMS=7.64D-06 Max=9.35D-05
 LinEq1:  Iter=  5 NonCon=     1 RMS=1.11D-06 Max=1.68D-05
 LinEq1:  Iter=  6 NonCon=     1 RMS=3.39D-07 Max=4.91D-06
 LinEq1:  Iter=  7 NonCon=     1 RMS=6.61D-08 Max=1.12D-06
 LinEq1:  Iter=  8 NonCon=     1 RMS=7.53D-09 Max=1.32D-07
 LinEq1:  Iter=  9 NonCon=     1 RMS=8.21D-10 Max=9.70D-09
 LinEq1:  Iter= 10 NonCon=     1 RMS=2.87D-10 Max=5.10D-09
 LinEq1:  Iter= 11 NonCon=     0 RMS=5.60D-11 Max=7.87D-10
 Linear equations converged to 1.000D-10 1.000D-09 after    11 iterations.
 End of Minotr Frequency-dependent properties file   721 does not exist.
 End of Minotr Frequency-dependent properties file   722 does not exist.
 Leave Link 1002 at Fri Dec  3 12:11:20 2021, MaxMem=  498073600 cpu:      53.9
 (Enter /apps/software//g09/l601.exe)
 Copying SCF densities to generalized density rwf, IOpCl= 0 IROHF=0.

 **********************************************************************

            Population analysis using the MP2 density.

 **********************************************************************

 Orbital symmetries:
       Occupied  (A1) (B2) (B1) (A1) (A2) (B2) (A1) (B2) (B1) (A1)
                 (A2) (A1) (B2) (B1) (B2) (B1) (A1) (A1) (A2) (B2)
                 (B1)
       Virtual   (A1) (B1) (B2) (A1) (A2) (B2) (A1) (A2) (A1) (B2)
                 (B1) (A1) (B1) (A2) (A1) (B1) (B2) (A1) (B2) (A1)
                 (A2) (A1) (A2) (B2) (B1) (B2) (B1) (B2) (A1) (A2)
                 (A2) (A1) (B2) (B2) (B1) (B2) (A1) (A2) (A2) (A1)
                 (B1) (B2) (A1) (B1) (A1) (B2) (B1) (B2) (A2) (B1)
                 (B2) (A1) (A2) (A1) (A1) (A2) (B2) (B2) (B1) (B2)
                 (A2) (A1) (B1) (B2) (A1) (A2) (A1) (B2) (B1) (B2)
                 (A2) (A1) (A2) (A1) (B1) (B2) (B1) (B2) (A1) (A2)
                 (A1) (B1) (B2) (B1) (A1) (A2) (A1) (B2) (B2) (B1)
                 (A2) (A1) (A1) (B2) (B1) (A1) (A2) (B1) (A2) (B1)
                 (B2) (B2) (B1) (B2) (A1) (A2) (A2) (A1) (B2) (A2)
                 (A1) (A2) (A1) (B2) (B1) (B2) (B1) (B2) (A1) (B2)
                 (B1) (A1) (A2) (B2) (A1) (B1) (B2) (A2) (A2) (A1)
                 (A2) (A1) (B2) (B1) (A1) (A2) (B1) (B2) (A1) (B2)
                 (A2) (A1) (B2) (B1) (B2) (A2) (A1) (B1) (B2) (A1)
                 (A2) (B2)
 The electronic state is 1-A1.
 Alpha  occ. eigenvalues --  -11.23984 -11.23927 -11.23927 -11.23804 -11.23804
 Alpha  occ. eigenvalues --  -11.23744  -1.15262  -1.01701  -1.01700  -0.82542
 Alpha  occ. eigenvalues --   -0.82540  -0.71059  -0.64325  -0.62093  -0.58949
 Alpha  occ. eigenvalues --   -0.58946  -0.50216  -0.49547  -0.49545  -0.33706
 Alpha  occ. eigenvalues --   -0.33705
 Alpha virt. eigenvalues --    0.04246   0.05034   0.05034   0.06767   0.06767
 Alpha virt. eigenvalues --    0.09750   0.10708   0.10709   0.12701   0.14982
 Alpha virt. eigenvalues --    0.14982   0.15991   0.16316   0.18206   0.18207
 Alpha virt. eigenvalues --    0.18912   0.18912   0.19307   0.20760   0.21319
 Alpha virt. eigenvalues --    0.21320   0.21564   0.21565   0.22787   0.22787
 Alpha virt. eigenvalues --    0.24653   0.25097   0.25186   0.28890   0.28890
 Alpha virt. eigenvalues --    0.30345   0.30659   0.35421   0.39363   0.39365
 Alpha virt. eigenvalues --    0.42805   0.42905   0.42905   0.49137   0.49138
 Alpha virt. eigenvalues --    0.50637   0.50638   0.60007   0.60417   0.71613
 Alpha virt. eigenvalues --    0.72232   0.72629   0.72633   0.75241   0.75514
 Alpha virt. eigenvalues --    0.75515   0.75583   0.75583   0.79486   0.81558
 Alpha virt. eigenvalues --    0.81558   0.85510   0.92835   0.93204   0.93298
 Alpha virt. eigenvalues --    0.94503   0.94506   0.94852   0.94855   0.95144
 Alpha virt. eigenvalues --    0.99328   0.99328   1.10121   1.10669   1.10669
 Alpha virt. eigenvalues --    1.12920   1.16000   1.16000   1.18911   1.24320
 Alpha virt. eigenvalues --    1.37587   1.37591   1.40002   1.46977   1.46979
 Alpha virt. eigenvalues --    1.55582   1.71577   1.77830   1.77837   1.78640
 Alpha virt. eigenvalues --    1.82777   1.82777   1.89143   1.91330   1.91336
 Alpha virt. eigenvalues --    1.93976   1.93979   1.99284   2.05181   2.05184
 Alpha virt. eigenvalues --    2.09266   2.09268   2.12847   2.18778   2.20505
 Alpha virt. eigenvalues --    2.20507   2.29568   2.29572   2.29752   2.32728
 Alpha virt. eigenvalues --    2.32728   2.39346   2.39349   2.62150   2.68608
 Alpha virt. eigenvalues --    2.72002   2.72005   2.73589   2.80512   2.80517
 Alpha virt. eigenvalues --    2.92445   2.93740   2.93745   2.98764   3.00267
 Alpha virt. eigenvalues --    3.00270   3.01281   3.01281   3.03675   3.05988
 Alpha virt. eigenvalues --    3.20347   3.20349   3.25773   3.29714   3.29716
 Alpha virt. eigenvalues --    3.31392   3.31394   3.50163   3.54292   3.76763
 Alpha virt. eigenvalues --    3.76764   3.89856   3.89858   3.90449   4.03942
 Alpha virt. eigenvalues --    4.40159   4.40162   4.50214   4.55082   4.55084
 Alpha virt. eigenvalues --    5.25641  24.73653  25.12988  25.12988  25.25139
 Alpha virt. eigenvalues --   25.25140  25.34642
          Condensed to atoms (all electrons):
              1          2          3          4          5          6
     1  C    5.617429   0.213532  -0.256888   0.368522  -0.263646   0.201905
     2  C    0.213532   5.617429   0.201905  -0.263646   0.368522  -0.256888
     3  C   -0.256888   0.201905   5.642106   0.201905  -0.256888   0.354650
     4  C    0.368522  -0.263646   0.201905   5.617429   0.213532  -0.256888
     5  C   -0.263646   0.368522  -0.256888   0.213532   5.617429   0.201905
     6  C    0.201905  -0.256888   0.354650  -0.256888   0.201905   5.642106
     7  H    0.424276  -0.077093  -0.012166   0.033025  -0.012217  -0.076785
     8  H   -0.077093   0.424276  -0.076785  -0.012217   0.033025  -0.012166
     9  H   -0.011778  -0.077761   0.425792  -0.077761  -0.011778   0.032893
    10  H    0.033025  -0.012217  -0.076785   0.424276  -0.077093  -0.012166
    11  H   -0.012217   0.033025  -0.012166  -0.077093   0.424276  -0.076785
    12  H   -0.077761  -0.011778   0.032893  -0.011778  -0.077761   0.425792
              7          8          9         10         11         12
     1  C    0.424276  -0.077093  -0.011778   0.033025  -0.012217  -0.077761
     2  C   -0.077093   0.424276  -0.077761  -0.012217   0.033025  -0.011778
     3  C   -0.012166  -0.076785   0.425792  -0.076785  -0.012166   0.032893
     4  C    0.033025  -0.012217  -0.077761   0.424276  -0.077093  -0.011778
     5  C   -0.012217   0.033025  -0.011778  -0.077093   0.424276  -0.077761
     6  C   -0.076785  -0.012166   0.032893  -0.012166  -0.076785   0.425792
     7  H    0.572009  -0.006007  -0.001545   0.001736  -0.001549  -0.006079
     8  H   -0.006007   0.572009  -0.006079  -0.001549   0.001736  -0.001545
     9  H   -0.001545  -0.006079   0.572503  -0.006079  -0.001545   0.001743
    10  H    0.001736  -0.001549  -0.006079   0.572009  -0.006007  -0.001545
    11  H   -0.001549   0.001736  -0.001545  -0.006007   0.572009  -0.006079
    12  H   -0.006079  -0.001545   0.001743  -0.001545  -0.006079   0.572503
 Mulliken atomic charges:
              1
     1  C   -0.159307
     2  C   -0.159307
     3  C   -0.167571
     4  C   -0.159307
     5  C   -0.159307
     6  C   -0.167571
     7  H    0.162395
     8  H    0.162395
     9  H    0.161395
    10  H    0.162395
    11  H    0.162395
    12  H    0.161395
 Sum of Mulliken atomic charges =   0.00000
 Mulliken charges with hydrogens summed into heavy atoms:
              1
     1  C    0.003088
     2  C    0.003088
     3  C   -0.006177
     4  C    0.003088
     5  C    0.003088
     6  C   -0.006177
 Sum of Mulliken charges with hydrogens summed into heavy atoms =   0.00000
 Electronic spatial extent (au):  <R**2>=            460.0603
 Charge=              0.0000 electrons
 Dipole moment (field-independent basis, Debye):
    X=              0.0000    Y=              0.0000    Z=              0.7653  Tot=              0.7653
 Quadrupole moment (field-independent basis, Debye-Ang):
   XX=            -32.8657   YY=            -32.8643   ZZ=            -40.6216
   XY=              0.0000   XZ=              0.0000   YZ=              0.0000
 Traceless Quadrupole moment (field-independent basis, Debye-Ang):
   XX=              2.5849   YY=              2.5862   ZZ=             -5.1711
   XY=              0.0000   XZ=              0.0000   YZ=              0.0000
 Octapole moment (field-independent basis, Debye-Ang**2):
  XXX=              0.0000  YYY=              0.0000  ZZZ=              1.2584  XYY=              0.0000
  XXY=              0.0000  XXZ=              3.4756  XZZ=              0.0000  YZZ=              0.0000
  YYZ=              3.4754  XYZ=              0.0000
 Hexadecapole moment (field-independent basis, Debye-Ang**3):
 XXXX=           -282.4016 YYYY=           -282.4027 ZZZZ=            -52.0298 XXXY=              0.0000
 XXXZ=              0.0000 YYYX=              0.0000 YYYZ=              0.0000 ZZZX=              0.0000
 ZZZY=              0.0000 XXYY=            -94.1373 XXZZ=            -65.7153 YYZZ=            -65.7182
 XXYZ=              0.0000 YYXZ=              0.0000 ZZXY=              0.0000
 N-N= 2.035182941873D+02 E-N=-9.446515521268D+02  KE= 2.314702715369D+02
 Symmetry A1   KE= 7.645945414101D+01
 Symmetry A2   KE= 3.795215227108D+01
 Symmetry B1   KE= 4.258468048303D+01
 Symmetry B2   KE= 7.447398464176D+01
 No NMR shielding tensors so no spin-rotation constants.
 Leave Link  601 at Fri Dec  3 12:11:21 2021, MaxMem=  498073600 cpu:       2.0
 (Enter /apps/software//g09/l9999.exe)
 1\1\GINC-DLT01\SP\RMP2-FC\6-311++G(d,p)\C6H6\ITAMAR\03-Dec-2021\0\\#P 
 MP2/6-311++G** DENSITY=MP2\\Pyramid-10\\0,1\C,0,-1.208367,0.69767,-0.0
 26902\C,0,-1.208367,-0.69767,-0.026902\C,0,0.,-1.395402,-0.026919\C,0,
 1.208367,-0.69767,-0.026902\C,0,1.208367,0.69767,-0.026902\C,0,0.,1.39
 5402,-0.026919\H,0,-2.133496,1.231724,0.161453\H,0,-2.133496,-1.231724
 ,0.161453\H,0,0.,-2.463608,0.161435\H,0,2.133496,-1.231724,0.161453\H,
 0,2.133496,1.231724,0.161453\H,0,0.,2.463608,0.161435\\Version=EM64L-G
 09RevA.02\State=1-A1\HF=-230.7484902\MP2=-231.5780221\RMSD=5.476e-09\D
 ipole=0.,0.,0.3011076\Quadrupole=1.9217772,1.9227777,-3.8445548,0.,0.,
 0.\PG=C02V [SGV(C2H2),X(C4H4)]\\@


 ... FOR AFTERWARDS A MAN FINDS PLEASURE IN HIS PAINS,
 WHEN HE HAS SUFFERED LONG AND WANDERED FAR.

                                    -- HOMER
 Job cpu time:  0 days  0 hours  4 minutes 30.5 seconds.
 File lengths (MBytes):  RWF=     14 Int=      0 D2E=      0 Chk=      4 Scr=      1
 Normal termination of Gaussian 09 at Fri Dec  3 12:11:21 2021.
