 Entering Gaussian System, Link 0=g09
 Initial command:
 /apps/software//g09/l1.exe /scratch/itamar/2423.cluster.abaxnet/Gau-9511.inp -scrdir=/scratch/itamar/2423.cluster.abaxnet/
 Entering Link 1 = /apps/software//g09/l1.exe PID=      9512.
  
 Copyright (c) 1988,1990,1992,1993,1995,1998,2003,2009, Gaussian, Inc.
                  All Rights Reserved.
  
 This is part of the Gaussian(R) 09 program.  It is based on
 the Gaussian(R) 03 system (copyright 2003, Gaussian, Inc.),
 the Gaussian(R) 98 system (copyright 1998, Gaussian, Inc.),
 the Gaussian(R) 94 system (copyright 1995, Gaussian, Inc.),
 the Gaussian 92(TM) system (copyright 1992, Gaussian, Inc.),
 the Gaussian 90(TM) system (copyright 1990, Gaussian, Inc.),
 the Gaussian 88(TM) system (copyright 1988, Gaussian, Inc.),
 the Gaussian 86(TM) system (copyright 1986, Carnegie Mellon
 University), and the Gaussian 82(TM) system (copyright 1983,
 Carnegie Mellon University). Gaussian is a federally registered
 trademark of Gaussian, Inc.
  
 This software contains proprietary and confidential information,
 including trade secrets, belonging to Gaussian, Inc.
  
 This software is provided under written license and may be
 used, copied, transmitted, or stored only in accord with that
 written license.
  
 The following legend is applicable only to US Government
 contracts under FAR:
  
                    RESTRICTED RIGHTS LEGEND
  
 Use, reproduction and disclosure by the US Government is
 subject to restrictions as set forth in subparagraphs (a)
 and (c) of the Commercial Computer Software - Restricted
 Rights clause in FAR 52.227-19.
  
 Gaussian, Inc.
 340 Quinnipiac St., Bldg. 40, Wallingford CT 06492
  
  
 ---------------------------------------------------------------
 Warning -- This program may not be used in any manner that
 competes with the business of Gaussian, Inc. or will provide
 assistance to any competitor of Gaussian, Inc.  The licensee
 of this program is prohibited from giving any competitor of
 Gaussian, Inc. access to this program.  By using this program,
 the user acknowledges that Gaussian, Inc. is engaged in the
 business of creating and licensing software in the field of
 computational chemistry and represents and warrants to the
 licensee that it is not a competitor of Gaussian, Inc. and that
 it will not use this program in any manner prohibited above.
 ---------------------------------------------------------------
  

 Cite this work as:
 Gaussian 09, Revision A.02,
 M. J. Frisch, G. W. Trucks, H. B. Schlegel, G. E. Scuseria, 
 M. A. Robb, J. R. Cheeseman, G. Scalmani, V. Barone, B. Mennucci, 
 G. A. Petersson, H. Nakatsuji, M. Caricato, X. Li, H. P. Hratchian, 
 A. F. Izmaylov, J. Bloino, G. Zheng, J. L. Sonnenberg, M. Hada, 
 M. Ehara, K. Toyota, R. Fukuda, J. Hasegawa, M. Ishida, T. Nakajima, 
 Y. Honda, O. Kitao, H. Nakai, T. Vreven, J. A. Montgomery, Jr., 
 J. E. Peralta, F. Ogliaro, M. Bearpark, J. J. Heyd, E. Brothers, 
 K. N. Kudin, V. N. Staroverov, R. Kobayashi, J. Normand, 
 K. Raghavachari, A. Rendell, J. C. Burant, S. S. Iyengar, J. Tomasi, 
 M. Cossi, N. Rega, J. M. Millam, M. Klene, J. E. Knox, J. B. Cross, 
 V. Bakken, C. Adamo, J. Jaramillo, R. Gomperts, R. E. Stratmann, 
 O. Yazyev, A. J. Austin, R. Cammi, C. Pomelli, J. W. Ochterski, 
 R. L. Martin, K. Morokuma, V. G. Zakrzewski, G. A. Voth, 
 P. Salvador, J. J. Dannenberg, S. Dapprich, A. D. Daniels, 
 O. Farkas, J. B. Foresman, J. V. Ortiz, J. Cioslowski, 
 and D. J. Fox, Gaussian, Inc., Wallingford CT, 2009.
 
 ******************************************
 Gaussian 09:  EM64L-G09RevA.02 11-Jun-2009
                 3-Dec-2021 
 ******************************************
 %Mem=3800MB
 %NProcShared=6
 Will use up to    6 processors via shared memory.
 %chk=/home/itamar/Aromaticity-test-set/T3-Boat-Like/25/boat-25.chk
 -----------------------------
 #P MP2/6-311++G** DENSITY=MP2
 -----------------------------
 1/30=1,38=1/1;
 2/12=2,17=6,18=5,40=1/2;
 3/5=4,6=6,7=1111,11=9,16=1,25=1,30=1,71=1/1,2,3;
 4//1;
 5/5=2,38=5/2;
 8/6=4,10=2/1;
 9/15=1,16=-3/6;
 10/5=1,13=10/2;
 6/7=2,8=2,9=2,10=2,22=2/1;
 99/5=1,9=1/99;
 Leave Link    1 at Fri Dec  3 15:03:16 2021, MaxMem=  498073600 cpu:       0.1
 (Enter /apps/software//g09/l101.exe)
 -------
 Boat-25
 -------
 Symbolic Z-matrix:
 Charge =  0 Multiplicity = 1
 6                    -0.00618   1.39166   0.10307 
 6                     1.20818   0.6905    0.10307 
 6                     1.16757  -0.67411  -0.19866 
 6                     0.00618  -1.39166   0.10307 
 6                    -1.20818  -0.6905    0.10307 
 6                    -1.16757   0.67411  -0.19866 
 1                    -0.02372   2.47331   0.16859 
 1                     2.15374   1.216     0.16891 
 1                     2.0995   -1.21212  -0.34498 
 1                     0.02372  -2.47331   0.16859 
 1                    -2.15374  -1.216     0.16891 
 1                    -2.0995    1.21212  -0.34498 
 
 NAtoms=     12 NQM=     12 NQMF=      0 NMic=      0 NMicF=      0 NTot=     12.
                    Isotopes and Nuclear Properties:
 (Nuclear quadrupole moments (NQMom) in fm**2, nuclear magnetic moments (NMagM)
  in nuclear magnetons)

  Atom         1           2           3           4           5           6           7           8           9          10
 IAtWgt=          12          12          12          12          12          12           1           1           1           1
 AtmWgt=  12.0000000  12.0000000  12.0000000  12.0000000  12.0000000  12.0000000   1.0078250   1.0078250   1.0078250   1.0078250
 NucSpn=           0           0           0           0           0           0           1           1           1           1
 AtZEff=   0.0000000   0.0000000   0.0000000   0.0000000   0.0000000   0.0000000   0.0000000   0.0000000   0.0000000   0.0000000
 NQMom=    0.0000000   0.0000000   0.0000000   0.0000000   0.0000000   0.0000000   0.0000000   0.0000000   0.0000000   0.0000000
 NMagM=    0.0000000   0.0000000   0.0000000   0.0000000   0.0000000   0.0000000   2.7928460   2.7928460   2.7928460   2.7928460

  Atom        11          12
 IAtWgt=           1           1
 AtmWgt=   1.0078250   1.0078250
 NucSpn=           1           1
 AtZEff=   0.0000000   0.0000000
 NQMom=    0.0000000   0.0000000
 NMagM=    2.7928460   2.7928460
 Leave Link  101 at Fri Dec  3 15:03:16 2021, MaxMem=  498073600 cpu:       0.1
 (Enter /apps/software//g09/l202.exe)
                          Input orientation:                          
 ---------------------------------------------------------------------
 Center     Atomic      Atomic             Coordinates (Angstroms)
 Number     Number       Type             X           Y           Z
 ---------------------------------------------------------------------
      1          6           0       -0.006177    1.391660    0.103066
      2          6           0        1.208177    0.690498    0.103066
      3          6           0        1.167565   -0.674110   -0.198662
      4          6           0        0.006177   -1.391660    0.103066
      5          6           0       -1.208177   -0.690498    0.103066
      6          6           0       -1.167565    0.674110   -0.198662
      7          1           0       -0.023722    2.473314    0.168593
      8          1           0        2.153744    1.216004    0.168913
      9          1           0        2.099501   -1.212119   -0.344977
     10          1           0        0.023722   -2.473314    0.168593
     11          1           0       -2.153744   -1.216004    0.168913
     12          1           0       -2.099501    1.212119   -0.344977
 ---------------------------------------------------------------------
                    Distance matrix (angstroms):
                    1          2          3          4          5
     1  C    0.000000
     2  C    1.402242   0.000000
     3  C    2.395019   1.398157   0.000000
     4  C    2.783347   2.404202   1.398120   0.000000
     5  C    2.404202   2.783149   2.394882   1.402242   0.000000
     6  C    1.398120   2.394882   2.696392   2.395019   1.398157
     7  H    1.083779   2.168018   3.385309   3.865645   3.378895
     8  H    2.168052   1.083785   2.163375   3.378800   3.865436
     9  H    3.378504   2.148291   1.085986   2.148251   3.378397
    10  H    3.865645   3.378895   2.163420   1.083779   2.168018
    11  H    3.378800   3.865436   3.385241   2.168052   1.083785
    12  H    2.148251   3.378397   3.775313   3.378504   2.148291
                    6          7          8          9         10
     6  C    0.000000
     7  H    2.163420   0.000000
     8  H    3.385241   2.514396   0.000000
     9  H    3.775313   4.284186   2.482500   0.000000
    10  H    3.385309   4.946856   4.260054   2.482584   0.000000
    11  H    2.163375   4.260054   4.946627   4.284179   2.514396
    12  H    1.085986   2.482584   4.284179   4.848561   4.284186
                   11         12
    11  H    0.000000
    12  H    2.482500   0.000000
 Stoichiometry    C6H6
 Framework group  C2[X(C6H6)]
 Deg. of freedom    16
 Full point group                 C2      NOp   2
 Largest Abelian subgroup         C2      NOp   2
 Largest concise Abelian subgroup C2      NOp   2
                         Standard orientation:                         
 ---------------------------------------------------------------------
 Center     Atomic      Atomic             Coordinates (Angstroms)
 Number     Number       Type             X           Y           Z
 ---------------------------------------------------------------------
      1          6           0        0.047573    1.390860   -0.101287
      2          6           0       -1.187102    0.726133   -0.101287
      3          6           0       -1.187102   -0.639079    0.200441
      4          6           0       -0.047573   -1.390860   -0.101287
      5          6           0        1.187102   -0.726133   -0.101287
      6          6           0        1.187102    0.639079    0.200441
      7          1           0        0.097287    2.471514   -0.166814
      8          1           0       -2.116617    1.279535   -0.167134
      9          1           0       -2.134630   -1.149127    0.346756
     10          1           0       -0.097287   -2.471514   -0.166814
     11          1           0        2.116617   -1.279535   -0.167134
     12          1           0        2.134630    1.149127    0.346756
 ---------------------------------------------------------------------
 Rotational constants (GHZ):      5.7924489      5.6489819      2.9197674
 Leave Link  202 at Fri Dec  3 15:03:16 2021, MaxMem=  498073600 cpu:       0.0
 (Enter /apps/software//g09/l301.exe)
 Standard basis: 6-311++G(d,p) (5D, 7F)
 Ernie: Thresh=  0.10000D-02 Tol=  0.10000D-05 Strict=F.
 There are    87 symmetry adapted basis functions of A   symmetry.
 There are    87 symmetry adapted basis functions of B   symmetry.
 Integral buffers will be    131072 words long.
 Raffenetti 1 integral format.
 Two-electron integral symmetry is turned on.
   174 basis functions,   270 primitive gaussians,   180 cartesian basis functions
    21 alpha electrons       21 beta electrons
       nuclear repulsion energy       203.8753741232 Hartrees.
 IExCor=    0 DFT=F Ex=HF Corr=None ExCW=0 ScaHFX=  1.000000
 ScaDFX=  1.000000  1.000000  1.000000  1.000000 ScalE2=  1.000000  1.000000
 IRadAn=      0 IRanWt=     -1 IRanGd=            0 ICorTp=0
 NAtoms=   12 NActive=   12 NUniq=    6 SFac= 3.00D+00 NAtFMM=   80 NAOKFM=F Big=F
 Leave Link  301 at Fri Dec  3 15:03:16 2021, MaxMem=  498073600 cpu:       0.1
 (Enter /apps/software//g09/l302.exe)
 NPDir=0 NMtPBC=     1 NCelOv=     1 NCel=       1 NClECP=     1 NCelD=      1
         NCelK=      1 NCelE2=     1 NClLst=     1 CellRange=     0.0.
 One-electron integrals computed using PRISM.
 One-electron integral symmetry used in STVInt
 NBasis=   174 RedAO= T  NBF=    87    87
 NBsUse=   174 1.00D-06 NBFU=    87    87
 Leave Link  302 at Fri Dec  3 15:03:16 2021, MaxMem=  498073600 cpu:       0.3
 (Enter /apps/software//g09/l303.exe)
 DipDrv:  MaxL=1.
 Leave Link  303 at Fri Dec  3 15:03:16 2021, MaxMem=  498073600 cpu:       0.1
 (Enter /apps/software//g09/l401.exe)
 Harris functional with IExCor=  205 diagonalized for initial guess.
 ExpMin= 3.60D-02 ExpMax= 4.56D+03 ExpMxC= 6.82D+02 IAcc=3 IRadAn=         0 AccDes= 0.00D+00
 HarFok:  IExCor=  205 AccDes= 0.00D+00 IRadAn=         0 IDoV= 1
 ScaDFX=  1.000000  1.000000  1.000000  1.000000
 FoFCou: FMM=F IPFlag=           0 FMFlag=      100000 FMFlg1=           0
         NFxFlg=           0 DoJE=T BraDBF=F KetDBF=T FulRan=T
         Omega=  0.000000  0.000000  1.000000  0.000000  0.000000 ICntrl=     500 IOpCl=  0
         NMat0=    1 NMatS0=    1 NMatT0=    0 NMatD0=    1 NMtDS0=    0 NMtDT0=    0
         I1Cent=           4 NGrid=           0.
 Petite list used in FoFCou.
 Harris En= -231.126880761265    
 Initial guess orbital symmetries:
       Occupied  (A) (B) (B) (A) (A) (B) (A) (B) (B) (A) (A) (A)
                 (B) (B) (B) (B) (A) (A) (A) (B) (B)
       Virtual   (A) (A) (B) (A) (B) (B) (A) (A) (A) (A) (B) (B)
                 (B) (B) (B) (A) (A) (B) (A) (A) (B) (B) (A) (A)
                 (B) (A) (B) (B) (A) (B) (A) (A) (A) (B) (A) (B)
                 (B) (A) (A) (B) (B) (B) (A) (A) (B) (B) (A) (A)
                 (B) (A) (A) (B) (B) (A) (B) (A) (A) (A) (B) (B)
                 (A) (B) (B) (B) (A) (A) (B) (A) (A) (B) (B) (A)
                 (B) (B) (A) (B) (A) (B) (A) (A) (A) (B) (B) (B)
                 (B) (A) (A) (A) (B) (B) (A) (A) (B) (A) (B) (B)
                 (B) (A) (A) (A) (B) (B) (A) (B) (A) (B) (B) (A)
                 (A) (A) (B) (A) (A) (B) (A) (B) (B) (B) (B) (A)
                 (B) (A) (A) (B) (A) (B) (B) (A) (B) (A) (A) (A)
                 (B) (A) (B) (A) (A) (B) (B) (A) (B) (A) (A) (B)
                 (B) (B) (A) (A) (B) (B) (A) (A) (B)
 The electronic state of the initial guess is 1-A.
 Leave Link  401 at Fri Dec  3 15:03:16 2021, MaxMem=  498073600 cpu:       0.9
 (Enter /apps/software//g09/l502.exe)
 Closed shell SCF:
 Requested convergence on RMS density matrix=1.00D-08 within 128 cycles.
 Requested convergence on MAX density matrix=1.00D-06.
 Requested convergence on             energy=1.00D-06.
 No special actions if energy rises.
 Using DIIS extrapolation, IDIIS=  1040.
 Integral symmetry usage will be decided dynamically.
 Keep R1 ints in memory in canonical form, NReq=135772999.
 IEnd=      118010 IEndB=      118010 NGot=   498073600 MDV=   365314588
 LenX=   365314588 LenY=   365281747
 Symmetry not used in FoFDir.
 MinBra= 0 MaxBra= 2 Meth= 1.
 IRaf=       0 NMat=   1 IRICut=       1 DoRegI=T DoRafI=F ISym2E= 0 JSym2E=0.

 Cycle   1  Pass 1  IDiag  1:
 E= -230.427222371054    
 DIIS: error= 5.32D-02 at cycle   1 NSaved=   1.
 NSaved= 1 IEnMin= 1 EnMin= -230.427222371054     IErMin= 1 ErrMin= 5.32D-02
 ErrMax= 5.32D-02 EMaxC= 1.00D-01 BMatC= 5.14D-01 BMatP= 5.14D-01
 IDIUse=3 WtCom= 4.68D-01 WtEn= 5.32D-01
 Coeff-Com:  0.100D+01
 Coeff-En:   0.100D+01
 Coeff:      0.100D+01
 Gap=     0.457 Goal=   None    Shift=    0.000
 GapD=    0.457 DampG=2.000 DampE=0.500 DampFc=1.0000 IDamp=-1.
 RMSDP=6.12D-02 MaxDP=1.76D+00              OVMax= 1.61D-01

 Cycle   2  Pass 1  IDiag  1:
 E= -230.678137625535     Delta-E=       -0.250915254481 Rises=F Damp=F
 DIIS: error= 2.73D-02 at cycle   2 NSaved=   2.
 NSaved= 2 IEnMin= 2 EnMin= -230.678137625535     IErMin= 2 ErrMin= 2.73D-02
 ErrMax= 2.73D-02 EMaxC= 1.00D-01 BMatC= 5.08D-02 BMatP= 5.14D-01
 IDIUse=3 WtCom= 7.27D-01 WtEn= 2.73D-01
 Coeff-Com:  0.161D+00 0.839D+00
 Coeff-En:   0.000D+00 0.100D+01
 Coeff:      0.117D+00 0.883D+00
 Gap=     0.411 Goal=   None    Shift=    0.000
 RMSDP=1.01D-01 MaxDP=2.85D+00 DE=-2.51D-01 OVMax= 6.15D-02

 Cycle   3  Pass 1  IDiag  1:
 E= -230.722181218850     Delta-E=       -0.044043593315 Rises=F Damp=F
 DIIS: error= 8.66D-03 at cycle   3 NSaved=   3.
 NSaved= 3 IEnMin= 3 EnMin= -230.722181218850     IErMin= 3 ErrMin= 8.66D-03
 ErrMax= 8.66D-03 EMaxC= 1.00D-01 BMatC= 6.12D-03 BMatP= 5.08D-02
 IDIUse=3 WtCom= 9.13D-01 WtEn= 8.66D-02
 Coeff-Com: -0.199D-01 0.230D+00 0.789D+00
 Coeff-En:   0.000D+00 0.000D+00 0.100D+01
 Coeff:     -0.182D-01 0.210D+00 0.808D+00
 Gap=     0.372 Goal=   None    Shift=    0.000
 RMSDP=5.76D-03 MaxDP=1.64D-01 DE=-4.40D-02 OVMax= 1.63D-02

 Cycle   4  Pass 1  IDiag  1:
 E= -230.728090217309     Delta-E=       -0.005908998459 Rises=F Damp=F
 DIIS: error= 1.09D-03 at cycle   4 NSaved=   4.
 NSaved= 4 IEnMin= 4 EnMin= -230.728090217309     IErMin= 4 ErrMin= 1.09D-03
 ErrMax= 1.09D-03 EMaxC= 1.00D-01 BMatC= 4.33D-05 BMatP= 6.12D-03
 IDIUse=3 WtCom= 9.89D-01 WtEn= 1.09D-02
 Coeff-Com: -0.190D-02-0.168D-01 0.109D-01 0.101D+01
 Coeff-En:   0.000D+00 0.000D+00 0.000D+00 0.100D+01
 Coeff:     -0.188D-02-0.167D-01 0.108D-01 0.101D+01
 Gap=     0.372 Goal=   None    Shift=    0.000
 RMSDP=4.09D-03 MaxDP=1.15D-01 DE=-5.91D-03 OVMax= 2.25D-03

 Cycle   5  Pass 1  IDiag  1:
 E= -230.728158609268     Delta-E=       -0.000068391959 Rises=F Damp=F
 DIIS: error= 2.05D-04 at cycle   5 NSaved=   5.
 NSaved= 5 IEnMin= 5 EnMin= -230.728158609268     IErMin= 5 ErrMin= 2.05D-04
 ErrMax= 2.05D-04 EMaxC= 1.00D-01 BMatC= 2.68D-06 BMatP= 4.33D-05
 IDIUse=3 WtCom= 9.98D-01 WtEn= 2.05D-03
 Coeff-Com:  0.110D-02-0.983D-02-0.412D-01-0.131D+00 0.118D+01
 Coeff-En:   0.000D+00 0.000D+00 0.000D+00 0.000D+00 0.100D+01
 Coeff:      0.110D-02-0.981D-02-0.411D-01-0.131D+00 0.118D+01
 Gap=     0.372 Goal=   None    Shift=    0.000
 RMSDP=1.05D-03 MaxDP=2.90D-02 DE=-6.84D-05 OVMax= 7.87D-04

 Cycle   6  Pass 1  IDiag  1:
 E= -230.728164593455     Delta-E=       -0.000005984187 Rises=F Damp=F
 DIIS: error= 4.54D-05 at cycle   6 NSaved=   6.
 NSaved= 6 IEnMin= 6 EnMin= -230.728164593455     IErMin= 6 ErrMin= 4.54D-05
 ErrMax= 4.54D-05 EMaxC= 1.00D-01 BMatC= 2.12D-07 BMatP= 2.68D-06
 IDIUse=1 WtCom= 1.00D+00 WtEn= 0.00D+00
 Coeff-Com:  0.359D-03-0.217D-02-0.110D-01-0.638D-01 0.283D+00 0.793D+00
 Coeff:      0.359D-03-0.217D-02-0.110D-01-0.638D-01 0.283D+00 0.793D+00
 Gap=     0.372 Goal=   None    Shift=    0.000
 RMSDP=6.45D-05 MaxDP=1.91D-03 DE=-5.98D-06 OVMax= 2.20D-04

 Cycle   7  Pass 1  IDiag  1:
 E= -230.728164920643     Delta-E=       -0.000000327188 Rises=F Damp=F
 DIIS: error= 2.64D-05 at cycle   7 NSaved=   7.
 NSaved= 7 IEnMin= 7 EnMin= -230.728164920643     IErMin= 7 ErrMin= 2.64D-05
 ErrMax= 2.64D-05 EMaxC= 1.00D-01 BMatC= 1.99D-08 BMatP= 2.12D-07
 IDIUse=1 WtCom= 1.00D+00 WtEn= 0.00D+00
 Coeff-Com: -0.146D-03 0.126D-02 0.565D-02 0.218D-01-0.168D+00-0.523D-01
 Coeff-Com:  0.119D+01
 Coeff:     -0.146D-03 0.126D-02 0.565D-02 0.218D-01-0.168D+00-0.523D-01
 Coeff:      0.119D+01
 Gap=     0.372 Goal=   None    Shift=    0.000
 RMSDP=6.71D-06 MaxDP=1.82D-04 DE=-3.27D-07 OVMax= 1.15D-04

 Cycle   8  Pass 1  IDiag  1:
 E= -230.728164984622     Delta-E=       -0.000000063980 Rises=F Damp=F
 DIIS: error= 7.16D-06 at cycle   8 NSaved=   8.
 NSaved= 8 IEnMin= 8 EnMin= -230.728164984622     IErMin= 8 ErrMin= 7.16D-06
 ErrMax= 7.16D-06 EMaxC= 1.00D-01 BMatC= 1.32D-09 BMatP= 1.99D-08
 IDIUse=1 WtCom= 1.00D+00 WtEn= 0.00D+00
 Coeff-Com:  0.242D-04-0.284D-03-0.132D-02-0.346D-02 0.430D-01-0.344D-01
 Coeff-Com: -0.468D+00 0.146D+01
 Coeff:      0.242D-04-0.284D-03-0.132D-02-0.346D-02 0.430D-01-0.344D-01
 Coeff:     -0.468D+00 0.146D+01
 Gap=     0.372 Goal=   None    Shift=    0.000
 RMSDP=2.56D-06 MaxDP=6.48D-05 DE=-6.40D-08 OVMax= 4.62D-05

 Cycle   9  Pass 1  IDiag  1:
 E= -230.728164990146     Delta-E=       -0.000000005524 Rises=F Damp=F
 DIIS: error= 6.24D-07 at cycle   9 NSaved=   9.
 NSaved= 9 IEnMin= 9 EnMin= -230.728164990146     IErMin= 9 ErrMin= 6.24D-07
 ErrMax= 6.24D-07 EMaxC= 1.00D-01 BMatC= 3.08D-11 BMatP= 1.32D-09
 IDIUse=1 WtCom= 1.00D+00 WtEn= 0.00D+00
 Coeff-Com: -0.371D-06 0.200D-04 0.116D-03 0.968D-04-0.445D-02 0.109D-01
 Coeff-Com:  0.633D-01-0.319D+00 0.125D+01
 Coeff:     -0.371D-06 0.200D-04 0.116D-03 0.968D-04-0.445D-02 0.109D-01
 Coeff:      0.633D-01-0.319D+00 0.125D+01
 Gap=     0.372 Goal=   None    Shift=    0.000
 RMSDP=3.11D-06 MaxDP=8.96D-05 DE=-5.52D-09 OVMax= 4.69D-06

 Cycle  10  Pass 1  IDiag  1:
 E= -230.728164990246     Delta-E=       -0.000000000100 Rises=F Damp=F
 DIIS: error= 1.31D-07 at cycle  10 NSaved=  10.
 NSaved=10 IEnMin=10 EnMin= -230.728164990246     IErMin=10 ErrMin= 1.31D-07
 ErrMax= 1.31D-07 EMaxC= 1.00D-01 BMatC= 1.93D-12 BMatP= 3.08D-11
 IDIUse=1 WtCom= 1.00D+00 WtEn= 0.00D+00
 Coeff-Com: -0.132D-05 0.176D-04 0.823D-04 0.209D-03-0.281D-02 0.324D-02
 Coeff-Com:  0.312D-01-0.111D+00 0.122D+00 0.957D+00
 Coeff:     -0.132D-05 0.176D-04 0.823D-04 0.209D-03-0.281D-02 0.324D-02
 Coeff:      0.312D-01-0.111D+00 0.122D+00 0.957D+00
 Gap=     0.372 Goal=   None    Shift=    0.000
 RMSDP=5.53D-07 MaxDP=1.78D-05 DE=-9.96D-11 OVMax= 8.35D-07

 Cycle  11  Pass 1  IDiag  1:
 E= -230.728164990254     Delta-E=       -0.000000000008 Rises=F Damp=F
 DIIS: error= 3.49D-08 at cycle  11 NSaved=  11.
 NSaved=11 IEnMin=11 EnMin= -230.728164990254     IErMin=11 ErrMin= 3.49D-08
 ErrMax= 3.49D-08 EMaxC= 1.00D-01 BMatC= 1.27D-13 BMatP= 1.93D-12
 IDIUse=1 WtCom= 1.00D+00 WtEn= 0.00D+00
 Coeff-Com:  0.216D-06-0.378D-05-0.208D-04-0.354D-04 0.719D-03-0.107D-02
 Coeff-Com: -0.936D-02 0.386D-01-0.106D+00-0.130D+00 0.121D+01
 Coeff:      0.216D-06-0.378D-05-0.208D-04-0.354D-04 0.719D-03-0.107D-02
 Coeff:     -0.936D-02 0.386D-01-0.106D+00-0.130D+00 0.121D+01
 Gap=     0.372 Goal=   None    Shift=    0.000
 RMSDP=2.04D-08 MaxDP=5.00D-07 DE=-8.47D-12 OVMax= 3.30D-07

 Cycle  12  Pass 1  IDiag  1:
 E= -230.728164990252     Delta-E=        0.000000000003 Rises=F Damp=F
 DIIS: error= 9.01D-09 at cycle  12 NSaved=  12.
 NSaved=12 IEnMin=11 EnMin= -230.728164990254     IErMin=12 ErrMin= 9.01D-09
 ErrMax= 9.01D-09 EMaxC= 1.00D-01 BMatC= 5.00D-15 BMatP= 1.27D-13
 IDIUse=1 WtCom= 1.00D+00 WtEn= 0.00D+00
 Coeff-Com:  0.501D-09 0.241D-06 0.224D-05-0.880D-06-0.774D-04 0.206D-03
 Coeff-Com:  0.110D-02-0.558D-02 0.228D-01-0.402D-02-0.316D+00 0.130D+01
 Coeff:      0.501D-09 0.241D-06 0.224D-05-0.880D-06-0.774D-04 0.206D-03
 Coeff:      0.110D-02-0.558D-02 0.228D-01-0.402D-02-0.316D+00 0.130D+01
 Gap=     0.372 Goal=   None    Shift=    0.000
 RMSDP=1.95D-08 MaxDP=5.35D-07 DE= 2.56D-12 OVMax= 7.17D-08

 Cycle  13  Pass 1  IDiag  1:
 E= -230.728164990254     Delta-E=       -0.000000000003 Rises=F Damp=F
 DIIS: error= 1.47D-09 at cycle  13 NSaved=  13.
 NSaved=13 IEnMin=11 EnMin= -230.728164990254     IErMin=13 ErrMin= 1.47D-09
 ErrMax= 1.47D-09 EMaxC= 1.00D-01 BMatC= 1.43D-16 BMatP= 5.00D-15
 IDIUse=1 WtCom= 1.00D+00 WtEn= 0.00D+00
 Coeff-Com: -0.653D-08 0.790D-07 0.304D-06 0.128D-05-0.111D-04 0.115D-04
 Coeff-Com:  0.109D-03-0.371D-03-0.141D-03 0.486D-02 0.123D-01-0.210D+00
 Coeff-Com:  0.119D+01
 Coeff:     -0.653D-08 0.790D-07 0.304D-06 0.128D-05-0.111D-04 0.115D-04
 Coeff:      0.109D-03-0.371D-03-0.141D-03 0.486D-02 0.123D-01-0.210D+00
 Coeff:      0.119D+01
 Gap=     0.372 Goal=   None    Shift=    0.000
 RMSDP=1.16D-08 MaxDP=3.47D-07 DE=-2.56D-12 OVMax= 8.37D-09

 Cycle  14  Pass 1  IDiag  1:
 E= -230.728164990254     Delta-E=        0.000000000001 Rises=F Damp=F
 DIIS: error= 3.12D-10 at cycle  14 NSaved=  14.
 NSaved=14 IEnMin=11 EnMin= -230.728164990254     IErMin=14 ErrMin= 3.12D-10
 ErrMax= 3.12D-10 EMaxC= 1.00D-01 BMatC= 1.56D-17 BMatP= 1.43D-16
 IDIUse=1 WtCom= 1.00D+00 WtEn= 0.00D+00
 Coeff-Com: -0.895D-09-0.105D-08-0.655D-07 0.262D-06 0.190D-05-0.587D-05
 Coeff-Com: -0.402D-04 0.211D-03-0.105D-02 0.768D-03 0.161D-01-0.872D-01
 Coeff-Com:  0.151D+00 0.920D+00
 Coeff:     -0.895D-09-0.105D-08-0.655D-07 0.262D-06 0.190D-05-0.587D-05
 Coeff:     -0.402D-04 0.211D-03-0.105D-02 0.768D-03 0.161D-01-0.872D-01
 Coeff:      0.151D+00 0.920D+00
 Gap=     0.372 Goal=   None    Shift=    0.000
 RMSDP=2.00D-10 MaxDP=6.17D-09 DE= 5.12D-13 OVMax= 1.74D-09

 SCF Done:  E(RHF) =  -230.728164990     A.U. after   14 cycles
             Convg  =    0.2002D-09             -V/T =  2.0013
 KE= 2.304304826317D+02 PE=-9.445251778632D+02 EE= 2.794911561182D+02
 Leave Link  502 at Fri Dec  3 15:03:20 2021, MaxMem=  498073600 cpu:      19.3
 (Enter /apps/software//g09/l801.exe)
 ExpMin= 3.60D-02 ExpMax= 4.56D+03 ExpMxC= 6.82D+02 IAcc=3 IRadAn=         5 AccDes= 0.00D+00
 HarFok:  IExCor=  205 AccDes= 0.00D+00 IRadAn=         5 IDoV=-2
 ScaDFX=  1.000000  1.000000  1.000000  1.000000
 Largest valence mixing into a core orbital is  1.45D-04
 Largest core mixing into a valence orbital is  4.03D-05
 Range of M.O.s used for correlation:     7   174
 NBasis=   174 NAE=    21 NBE=    21 NFC=     6 NFV=     0
 NROrb=    168 NOA=    15 NOB=    15 NVA=   153 NVB=   153

 **** Warning!!: The largest alpha MO coefficient is  0.13205091D+03

 Leave Link  801 at Fri Dec  3 15:03:20 2021, MaxMem=  498073600 cpu:       0.4
 (Enter /apps/software//g09/l906.exe)
 Frozen-core derivative calculation, NFC=   6 NFV=   0.
 FulOut=F Deriv=T AODrv=F NAtomX=    12
   MMem=         328  MDisk=          15 MDiskD=          15
  W3Min=      657720 MinDsk=     1009670 NBas6D=         180
 NBas2D=       16542    NTT=       16290    LW2=     2040000
    MDV=   497692901 MDiskM=       38247 NBas2p=        8394
 Fully in-core method, ICMem=   280919484.
 IMap=   1   2   3   4   5   6   7   8   9  10  11  12  13  14  15  16  17  18  19  20
 IMap=  21
 JobTyp=1 Pass  1 fully in-core, NPsUse=  6.
 Compute canonical integrals, IntTyp=   4.
 Symmetry not used in FoFDir.
 MinBra= 0 MaxBra= 2 Meth= 1.
 IRaf=       0 NMat=   1 IRICut=       1 DoRegI=T DoRafI=F ISym2E= 0 JSym2E=0.
 Spin components of T(2) and E(2):
     alpha-alpha T2 =       0.4301693213D-01 E2=     -0.1087212103D+00
     alpha-beta  T2 =       0.2267632388D+00 E2=     -0.6173233586D+00
     beta-beta   T2 =       0.4301693213D-01 E2=     -0.1087212103D+00
 The integrals were generated   1 times.
 ANorm=    0.1145773583D+01
 E2 =    -0.8347657793D+00 EUMP2 =    -0.23156293076954D+03
 Leave Link  906 at Fri Dec  3 15:03:36 2021, MaxMem=  498073600 cpu:      94.9
 (Enter /apps/software//g09/l1002.exe)
 Minotr:  Closed shell wavefunction.
          Computing MP2/KS-MP2 derivatives.
          Using Z-Vector for PSCF gradient.
          Skipping F1 and S1 gradient terms here.
          Frozen-core window.
          Direct CPHF calculation.
          Differentiating once with respect to electric field.
                with respect to dipole field.
          Electric field/nuclear overlap derivatives assumed to be zero.
          Using symmetry in CPHF.
          Requested convergence is 1.0D-10 RMS, and 1.0D-09 maximum.
          NewPWx=F KeepS1=T KeepF1=T KeepIn=T MapXYZ=F SortEE=F KeepMc=T.
          MDV=     498073500 using IRadAn=       0.
          Keep R1 ints in memory in canonical form, NReq=133511598.
 Symmetry not used in FoFDir.
 MinBra= 0 MaxBra= 2 Meth= 1.
 IRaf=       0 NMat=   1 IRICut=       1 DoRegI=T DoRafI=F ISym2E= 0 JSym2E=0.
          Solving linear equations separately, MaxMat=       0.
          There are     1 degrees of freedom in the 1st order CPHF.  IDoFFX=0.
 LinEq1:  Iter=  0 NonCon=     1 RMS=3.43D-03 Max=7.03D-02
 AX will form     1 AO Fock derivatives at one time.
 LinEq1:  Iter=  1 NonCon=     1 RMS=8.41D-04 Max=1.46D-02
 LinEq1:  Iter=  2 NonCon=     1 RMS=2.53D-04 Max=5.44D-03
 LinEq1:  Iter=  3 NonCon=     1 RMS=5.56D-05 Max=7.46D-04
 LinEq1:  Iter=  4 NonCon=     1 RMS=9.99D-06 Max=1.30D-04
 LinEq1:  Iter=  5 NonCon=     1 RMS=2.47D-06 Max=4.72D-05
 LinEq1:  Iter=  6 NonCon=     1 RMS=9.80D-07 Max=1.45D-05
 LinEq1:  Iter=  7 NonCon=     1 RMS=1.61D-07 Max=1.79D-06
 LinEq1:  Iter=  8 NonCon=     1 RMS=2.18D-08 Max=2.29D-07
 LinEq1:  Iter=  9 NonCon=     1 RMS=4.81D-09 Max=5.27D-08
 LinEq1:  Iter= 10 NonCon=     1 RMS=1.18D-09 Max=1.14D-08
 LinEq1:  Iter= 11 NonCon=     1 RMS=2.00D-10 Max=2.59D-09
 LinEq1:  Iter= 12 NonCon=     0 RMS=3.08D-11 Max=3.48D-10
 Linear equations converged to 1.000D-10 1.000D-09 after    12 iterations.
 End of Minotr Frequency-dependent properties file   721 does not exist.
 End of Minotr Frequency-dependent properties file   722 does not exist.
 Leave Link 1002 at Fri Dec  3 15:03:40 2021, MaxMem=  498073600 cpu:      22.2
 (Enter /apps/software//g09/l601.exe)
 Copying SCF densities to generalized density rwf, IOpCl= 0 IROHF=0.

 **********************************************************************

            Population analysis using the MP2 density.

 **********************************************************************

 Orbital symmetries:
       Occupied  (A) (B) (B) (A) (A) (B) (A) (B) (B) (A) (A) (A)
                 (B) (B) (B) (B) (A) (A) (A) (B) (B)
       Virtual   (A) (B) (B) (A) (A) (B) (A) (A) (A) (B) (B) (B)
                 (A) (B) (A) (B) (B) (A) (A) (A) (A) (B) (A) (A)
                 (B) (A) (B) (B) (A) (B) (B) (A) (B) (A) (B) (A)
                 (B) (A) (B) (A) (B) (A) (B) (A) (B) (B) (A) (B)
                 (A) (A) (B) (B) (A) (B) (A) (A) (A) (A) (B) (B)
                 (B) (B) (B) (A) (A) (A) (B) (A) (A) (B) (A) (B)
                 (B) (B) (A) (B) (A) (B) (A) (A) (B) (A) (B) (B)
                 (B) (A) (B) (A) (A) (B) (A) (A) (B) (A) (B) (B)
                 (A) (A) (B) (B) (A) (B) (B) (A) (A) (B) (B) (A)
                 (A) (A) (B) (A) (A) (A) (B) (B) (B) (B) (B) (A)
                 (A) (B) (B) (B) (A) (A) (A) (B) (B) (A) (A) (A)
                 (A) (B) (B) (A) (A) (B) (B) (A) (B) (A) (A) (B)
                 (B) (B) (A) (A) (B) (B) (A) (A) (B)
 The electronic state is 1-A.
 Alpha  occ. eigenvalues --  -11.23989 -11.23966 -11.23890 -11.23847 -11.23693
 Alpha  occ. eigenvalues --  -11.23678  -1.15418  -1.01426  -1.01342  -0.82128
 Alpha  occ. eigenvalues --   -0.82088  -0.71048  -0.64755  -0.61310  -0.59148
 Alpha  occ. eigenvalues --   -0.58480  -0.51136  -0.49851  -0.48344  -0.33077
 Alpha  occ. eigenvalues --   -0.33004
 Alpha virt. eigenvalues --    0.04163   0.04911   0.05024   0.06613   0.07115
 Alpha virt. eigenvalues --    0.09149   0.09361   0.11014   0.11910   0.14304
 Alpha virt. eigenvalues --    0.15075   0.16466   0.16700   0.17629   0.18107
 Alpha virt. eigenvalues --    0.18822   0.18957   0.19077   0.19275   0.20857
 Alpha virt. eigenvalues --    0.20900   0.21420   0.21916   0.21981   0.23029
 Alpha virt. eigenvalues --    0.23628   0.23823   0.24284   0.25767   0.26943
 Alpha virt. eigenvalues --    0.29000   0.30771   0.33490   0.34214   0.39439
 Alpha virt. eigenvalues --    0.40475   0.41357   0.43175   0.43294   0.46414
 Alpha virt. eigenvalues --    0.49574   0.50203   0.51340   0.60583   0.60688
 Alpha virt. eigenvalues --    0.67057   0.69269   0.72737   0.72853   0.73770
 Alpha virt. eigenvalues --    0.75306   0.75776   0.76166   0.76975   0.80800
 Alpha virt. eigenvalues --    0.81734   0.82076   0.82928   0.86678   0.88038
 Alpha virt. eigenvalues --    0.89226   0.93062   0.94116   0.95305   0.95717
 Alpha virt. eigenvalues --    0.98054   1.02324   1.04002   1.05309   1.08501
 Alpha virt. eigenvalues --    1.08854   1.11261   1.13063   1.20004   1.21507
 Alpha virt. eigenvalues --    1.31519   1.35040   1.37367   1.43593   1.43745
 Alpha virt. eigenvalues --    1.54218   1.55347   1.71999   1.76021   1.79158
 Alpha virt. eigenvalues --    1.80428   1.83576   1.84895   1.85730   1.89980
 Alpha virt. eigenvalues --    1.90824   1.91747   1.94713   1.99817   2.05769
 Alpha virt. eigenvalues --    2.06808   2.10169   2.10429   2.10999   2.13386
 Alpha virt. eigenvalues --    2.14079   2.16985   2.29421   2.31887   2.33312
 Alpha virt. eigenvalues --    2.35308   2.38926   2.40532   2.40593   2.58474
 Alpha virt. eigenvalues --    2.60678   2.64705   2.74590   2.76426   2.77182
 Alpha virt. eigenvalues --    2.81776   2.83954   2.92744   2.96173   2.96768
 Alpha virt. eigenvalues --    2.98784   3.00982   3.02328   3.05979   3.05991
 Alpha virt. eigenvalues --    3.09188   3.15759   3.17488   3.24446   3.27822
 Alpha virt. eigenvalues --    3.31935   3.32328   3.39815   3.48706   3.53489
 Alpha virt. eigenvalues --    3.72177   3.77622   3.88603   3.90565   3.92725
 Alpha virt. eigenvalues --    3.95557   4.39945   4.44406   4.46686   4.52981
 Alpha virt. eigenvalues --    4.64573   5.04858  24.75856  25.11578  25.13598
 Alpha virt. eigenvalues --   25.24389  25.26067  25.29723
          Condensed to atoms (all electrons):
              1          2          3          4          5          6
     1  C   10.298970  -4.364283   3.774800  -2.946725   3.166242  -4.005601
     2  C   -4.364283  10.298307  -4.005279   3.166242  -2.946399   3.774531
     3  C    3.774800  -4.005279  10.040423  -4.005601   3.774531  -3.721908
     4  C   -2.946725   3.166242  -4.005601  10.298970  -4.364283   3.774800
     5  C    3.166242  -2.946399   3.774531  -4.364283  10.298307  -4.005279
     6  C   -4.005601   3.774531  -3.721908   3.774800  -4.005279  10.040423
     7  H    0.692333  -0.308567   0.161885  -0.088615   0.115835  -0.295387
     8  H   -0.308589   0.692285  -0.295338   0.115786  -0.088578   0.161885
     9  H    0.195826  -0.355240   0.753588  -0.355241   0.195808  -0.165466
    10  H   -0.088615   0.115835  -0.295387   0.692333  -0.308567   0.161885
    11  H    0.115786  -0.088578   0.161885  -0.308589   0.692285  -0.295338
    12  H   -0.355241   0.195808  -0.165466   0.195826  -0.355240   0.753588
              7          8          9         10         11         12
     1  C    0.692333  -0.308589   0.195826  -0.088615   0.115786  -0.355241
     2  C   -0.308567   0.692285  -0.355240   0.115835  -0.088578   0.195808
     3  C    0.161885  -0.295338   0.753588  -0.295387   0.161885  -0.165466
     4  C   -0.088615   0.115786  -0.355241   0.692333  -0.308589   0.195826
     5  C    0.115835  -0.088578   0.195808  -0.308567   0.692285  -0.355240
     6  C   -0.295387   0.161885  -0.165466   0.161885  -0.295338   0.753588
     7  H    0.588240  -0.022135   0.005515  -0.001365   0.003721  -0.031054
     8  H   -0.022135   0.588237  -0.031045   0.003721  -0.001363   0.005514
     9  H    0.005515  -0.031045   0.618219  -0.031054   0.005514  -0.004906
    10  H   -0.001365   0.003721  -0.031054   0.588240  -0.022135   0.005515
    11  H    0.003721  -0.001363   0.005514  -0.022135   0.588237  -0.031045
    12  H   -0.031054   0.005514  -0.004906   0.005515  -0.031045   0.618219
 Mulliken atomic charges:
              1
     1  C   -0.174903
     2  C   -0.174661
     3  C   -0.178134
     4  C   -0.174903
     5  C   -0.174661
     6  C   -0.178134
     7  H    0.179596
     8  H    0.179622
     9  H    0.168481
    10  H    0.179596
    11  H    0.179622
    12  H    0.168481
 Sum of Mulliken atomic charges =   0.00000
 Mulliken charges with hydrogens summed into heavy atoms:
              1
     1  C    0.004692
     2  C    0.004960
     3  C   -0.009653
     4  C    0.004692
     5  C    0.004960
     6  C   -0.009653
 Sum of Mulliken charges with hydrogens summed into heavy atoms =   0.00000
 Electronic spatial extent (au):  <R**2>=            456.0770
 Charge=              0.0000 electrons
 Dipole moment (field-independent basis, Debye):
    X=              0.0000    Y=              0.0000    Z=              0.0082  Tot=              0.0082
 Quadrupole moment (field-independent basis, Debye-Ang):
   XX=            -32.9703   YY=            -32.7026   ZZ=            -40.5706
   XY=             -0.2021   XZ=              0.0000   YZ=              0.0000
 Traceless Quadrupole moment (field-independent basis, Debye-Ang):
   XX=              2.4442   YY=              2.7119   ZZ=             -5.1561
   XY=             -0.2021   XZ=              0.0000   YZ=              0.0000
 Octapole moment (field-independent basis, Debye-Ang**2):
  XXX=              0.0000  YYY=              0.0000  ZZZ=              0.0789  XYY=              0.0000
  XXY=              0.0000  XXZ=              1.2768  XZZ=              0.0000  YZZ=              0.0000
  YYZ=             -1.4285  XYZ=              2.0538
 Hexadecapole moment (field-independent basis, Debye-Ang**3):
 XXXX=           -275.8984 YYYY=           -275.8277 ZZZZ=            -56.6467 XXXY=             -1.5064
 XXXZ=              0.0000 YYYX=              1.4393 YYYZ=              0.0000 ZZZX=              0.0000
 ZZZY=              0.0000 XXYY=            -92.7991 XXZZ=            -65.0892 YYZZ=            -65.8860
 XXYZ=              0.0000 YYXZ=              0.0000 ZZXY=              0.5992
 N-N= 2.038753741232D+02 E-N=-9.453533133750D+02  KE= 2.314487481314D+02
 Symmetry A    KE= 1.143550597089D+02
 Symmetry B    KE= 1.170936884225D+02
 No NMR shielding tensors so no spin-rotation constants.
 Leave Link  601 at Fri Dec  3 15:03:40 2021, MaxMem=  498073600 cpu:       0.4
 (Enter /apps/software//g09/l9999.exe)
 1\1\GINC-DLT21\SP\RMP2-FC\6-311++G(d,p)\C6H6\ITAMAR\03-Dec-2021\0\\#P 
 MP2/6-311++G** DENSITY=MP2\\Boat-25\\0,1\C,0,-0.006177,1.39166,0.10306
 6\C,0,1.208177,0.690498,0.103066\C,0,1.167565,-0.67411,-0.198662\C,0,0
 .006177,-1.39166,0.103066\C,0,-1.208177,-0.690498,0.103066\C,0,-1.1675
 65,0.67411,-0.198662\H,0,-0.023722,2.473314,0.168593\H,0,2.153744,1.21
 6004,0.168913\H,0,2.099501,-1.212119,-0.344977\H,0,0.023722,-2.473314,
 0.168593\H,0,-2.153744,-1.216004,0.168913\H,0,-2.099501,1.212119,-0.34
 4977\\Version=EM64L-G09RevA.02\State=1-A\HF=-230.728165\MP2=-231.56293
 08\RMSD=2.002e-10\Dipole=0.,0.,-0.0032286\Quadrupole=1.8263386,2.00708
 85,-3.8334271,0.1558708,0.,0.\PG=C02 [X(C6H6)]\\@


 TERRY FORSTER, PORTLY ATLANTA BRAVES RELIEVER,
 ANNOUNCING THAT HE WAS GOING TO A FAT FARM:
 "A WAIST IS A TERRIBLE THING TO MIND."
 Job cpu time:  0 days  0 hours  2 minutes 19.3 seconds.
 File lengths (MBytes):  RWF=     14 Int=      0 D2E=      0 Chk=      4 Scr=      1
 Normal termination of Gaussian 09 at Fri Dec  3 15:03:40 2021.
