 Entering Link 1 = D:\G09W\l1.exe PID=      7304.
  
 Copyright (c) 1988,1990,1992,1993,1995,1998,2003,2009,2013,
            Gaussian, Inc.  All Rights Reserved.
  
 This is part of the Gaussian(R) 09 program.  It is based on
 the Gaussian(R) 03 system (copyright 2003, Gaussian, Inc.),
 the Gaussian(R) 98 system (copyright 1998, Gaussian, Inc.),
 the Gaussian(R) 94 system (copyright 1995, Gaussian, Inc.),
 the Gaussian 92(TM) system (copyright 1992, Gaussian, Inc.),
 the Gaussian 90(TM) system (copyright 1990, Gaussian, Inc.),
 the Gaussian 88(TM) system (copyright 1988, Gaussian, Inc.),
 the Gaussian 86(TM) system (copyright 1986, Carnegie Mellon
 University), and the Gaussian 82(TM) system (copyright 1983,
 Carnegie Mellon University). Gaussian is a federally registered
 trademark of Gaussian, Inc.
  
 This software contains proprietary and confidential information,
 including trade secrets, belonging to Gaussian, Inc.
  
 This software is provided under written license and may be
 used, copied, transmitted, or stored only in accord with that
 written license.
  
 The following legend is applicable only to US Government
 contracts under FAR:
  
                    RESTRICTED RIGHTS LEGEND
  
 Use, reproduction and disclosure by the US Government is
 subject to restrictions as set forth in subparagraphs (a)
 and (c) of the Commercial Computer Software - Restricted
 Rights clause in FAR 52.227-19.
  
 Gaussian, Inc.
 340 Quinnipiac St., Bldg. 40, Wallingford CT 06492
  
  
 ---------------------------------------------------------------
 Warning -- This program may not be used in any manner that
 competes with the business of Gaussian, Inc. or will provide
 assistance to any competitor of Gaussian, Inc.  The licensee
 of this program is prohibited from giving any competitor of
 Gaussian, Inc. access to this program.  By using this program,
 the user acknowledges that Gaussian, Inc. is engaged in the
 business of creating and licensing software in the field of
 computational chemistry and represents and warrants to the
 licensee that it is not a competitor of Gaussian, Inc. and that
 it will not use this program in any manner prohibited above.
 ---------------------------------------------------------------
  

 Cite this work as:
 Gaussian 09, Revision D.01,
 M. J. Frisch, G. W. Trucks, H. B. Schlegel, G. E. Scuseria, 
 M. A. Robb, J. R. Cheeseman, G. Scalmani, V. Barone, B. Mennucci, 
 G. A. Petersson, H. Nakatsuji, M. Caricato, X. Li, H. P. Hratchian, 
 A. F. Izmaylov, J. Bloino, G. Zheng, J. L. Sonnenberg, M. Hada, 
 M. Ehara, K. Toyota, R. Fukuda, J. Hasegawa, M. Ishida, T. Nakajima, 
 Y. Honda, O. Kitao, H. Nakai, T. Vreven, J. A. Montgomery, Jr., 
 J. E. Peralta, F. Ogliaro, M. Bearpark, J. J. Heyd, E. Brothers, 
 K. N. Kudin, V. N. Staroverov, T. Keith, R. Kobayashi, J. Normand, 
 K. Raghavachari, A. Rendell, J. C. Burant, S. S. Iyengar, J. Tomasi, 
 M. Cossi, N. Rega, J. M. Millam, M. Klene, J. E. Knox, J. B. Cross, 
 V. Bakken, C. Adamo, J. Jaramillo, R. Gomperts, R. E. Stratmann, 
 O. Yazyev, A. J. Austin, R. Cammi, C. Pomelli, J. W. Ochterski, 
 R. L. Martin, K. Morokuma, V. G. Zakrzewski, G. A. Voth, 
 P. Salvador, J. J. Dannenberg, S. Dapprich, A. D. Daniels, 
 O. Farkas, J. B. Foresman, J. V. Ortiz, J. Cioslowski, 
 and D. J. Fox, Gaussian, Inc., Wallingford CT, 2013.
 
 ******************************************
 Gaussian 09:  IA32W-G09RevD.01 24-Apr-2013
                15-Feb-2025 
 ******************************************
 %nprocshared=4
 Will use up to    4 processors via shared memory.
 %chk=E:\- 5 Doutorado\Projetos\0 - aromaticidade roberta\cálculos\Aromaticity-te
 st-set - mine\C6H6\opt\2-optfreq\
 -----------------------------------
 # opt=verytight freq MP2/6-311++G**
 -----------------------------------
 1/7=1,18=20,19=15,38=1/1,3;
 2/9=110,12=2,17=6,18=5,40=1/2;
 3/5=4,6=6,7=1111,11=9,16=1,25=1,30=1,71=1/1,2,3;
 4//1;
 5/5=2,38=5/2;
 8/6=4,10=2/1;
 9/15=2,16=-3/6;
 10/5=1/2;
 6/7=2,8=2,9=2,10=2/1;
 7/12=2/1,2,3,16;
 1/7=1,18=20,19=15/3(2);
 2/9=110/2;
 99//99;
 2/9=110/2;
 3/5=4,6=6,7=1111,11=9,16=1,25=1,30=1,71=1/1,2,3;
 4/5=5,16=3,69=1/1;
 5/5=2,38=5/2;
 8/6=4,10=2/1;
 9/15=2,16=-3/6;
 10/5=1/2;
 7/12=2/1,2,3,16;
 1/7=1,18=20,19=15/3(-8);
 2/9=110/2;
 6/7=2,8=2,9=2,10=2/1;
 99//99;
 ----
 14-H
 ----
 Symbolic Z-matrix:
 Charge =  0 Multiplicity = 1
 C                    -1.19909   0.69229  0. 
 C                     0.        1.38459   0. 
 C                     1.19909   0.69229  0. 
 C                     1.19909  -0.69229  0. 
 C                    0.        -1.38459   0. 
 C                    -1.19909  -0.69229  0. 
 H                    -2.1348    1.23253  0. 
 H                     0.        2.46505   0. 
 H                     2.1348    1.23253  0. 
 H                     2.1348   -1.23253  0. 
 H                    0.        -2.46505   0. 
 H                    -2.1348   -1.23253  0. 
 

 GradGradGradGradGradGradGradGradGradGradGradGradGradGradGradGradGradGrad
 Berny optimization.
 Initialization pass.
                           ----------------------------
                           !    Initial Parameters    !
                           ! (Angstroms and Degrees)  !
 --------------------------                            --------------------------
 ! Name  Definition              Value          Derivative Info.                !
 --------------------------------------------------------------------------------
 ! R1    R(1,2)                  1.3846         estimate D2E/DX2                !
 ! R2    R(1,6)                  1.3846         estimate D2E/DX2                !
 ! R3    R(1,7)                  1.0805         estimate D2E/DX2                !
 ! R4    R(2,3)                  1.3846         estimate D2E/DX2                !
 ! R5    R(2,8)                  1.0805         estimate D2E/DX2                !
 ! R6    R(3,4)                  1.3846         estimate D2E/DX2                !
 ! R7    R(3,9)                  1.0805         estimate D2E/DX2                !
 ! R8    R(4,5)                  1.3846         estimate D2E/DX2                !
 ! R9    R(4,10)                 1.0805         estimate D2E/DX2                !
 ! R10   R(5,6)                  1.3846         estimate D2E/DX2                !
 ! R11   R(5,11)                 1.0805         estimate D2E/DX2                !
 ! R12   R(6,12)                 1.0805         estimate D2E/DX2                !
 ! A1    A(2,1,6)              120.0            estimate D2E/DX2                !
 ! A2    A(2,1,7)              120.0            estimate D2E/DX2                !
 ! A3    A(6,1,7)              120.0            estimate D2E/DX2                !
 ! A4    A(1,2,3)              120.0            estimate D2E/DX2                !
 ! A5    A(1,2,8)              120.0            estimate D2E/DX2                !
 ! A6    A(3,2,8)              120.0            estimate D2E/DX2                !
 ! A7    A(2,3,4)              120.0            estimate D2E/DX2                !
 ! A8    A(2,3,9)              120.0            estimate D2E/DX2                !
 ! A9    A(4,3,9)              120.0            estimate D2E/DX2                !
 ! A10   A(3,4,5)              120.0            estimate D2E/DX2                !
 ! A11   A(3,4,10)             120.0            estimate D2E/DX2                !
 ! A12   A(5,4,10)             120.0            estimate D2E/DX2                !
 ! A13   A(4,5,6)              120.0            estimate D2E/DX2                !
 ! A14   A(4,5,11)             120.0            estimate D2E/DX2                !
 ! A15   A(6,5,11)             120.0            estimate D2E/DX2                !
 ! A16   A(1,6,5)              120.0            estimate D2E/DX2                !
 ! A17   A(1,6,12)             120.0            estimate D2E/DX2                !
 ! A18   A(5,6,12)             120.0            estimate D2E/DX2                !
 ! D1    D(6,1,2,3)              0.0            estimate D2E/DX2                !
 ! D2    D(6,1,2,8)            180.0            estimate D2E/DX2                !
 ! D3    D(7,1,2,3)            180.0            estimate D2E/DX2                !
 ! D4    D(7,1,2,8)              0.0            estimate D2E/DX2                !
 ! D5    D(2,1,6,5)              0.0            estimate D2E/DX2                !
 ! D6    D(2,1,6,12)           180.0            estimate D2E/DX2                !
 ! D7    D(7,1,6,5)            180.0            estimate D2E/DX2                !
 ! D8    D(7,1,6,12)             0.0            estimate D2E/DX2                !
 ! D9    D(1,2,3,4)              0.0            estimate D2E/DX2                !
 ! D10   D(1,2,3,9)            180.0            estimate D2E/DX2                !
 ! D11   D(8,2,3,4)            180.0            estimate D2E/DX2                !
 ! D12   D(8,2,3,9)              0.0            estimate D2E/DX2                !
 ! D13   D(2,3,4,5)              0.0            estimate D2E/DX2                !
 ! D14   D(2,3,4,10)           180.0            estimate D2E/DX2                !
 ! D15   D(9,3,4,5)            180.0            estimate D2E/DX2                !
 ! D16   D(9,3,4,10)             0.0            estimate D2E/DX2                !
 ! D17   D(3,4,5,6)              0.0            estimate D2E/DX2                !
 ! D18   D(3,4,5,11)           180.0            estimate D2E/DX2                !
 ! D19   D(10,4,5,6)           180.0            estimate D2E/DX2                !
 ! D20   D(10,4,5,11)            0.0            estimate D2E/DX2                !
 ! D21   D(4,5,6,1)              0.0            estimate D2E/DX2                !
 ! D22   D(4,5,6,12)           180.0            estimate D2E/DX2                !
 ! D23   D(11,5,6,1)           180.0            estimate D2E/DX2                !
 ! D24   D(11,5,6,12)            0.0            estimate D2E/DX2                !
 --------------------------------------------------------------------------------
 Trust Radius=3.00D-01 FncErr=1.00D-07 GrdErr=1.00D-07
 Number of steps in this run=     64 maximum allowed number of steps=    100.
 GradGradGradGradGradGradGradGradGradGradGradGradGradGradGradGradGradGrad

                          Input orientation:                          
 ---------------------------------------------------------------------
 Center     Atomic      Atomic             Coordinates (Angstroms)
 Number     Number       Type             X           Y           Z
 ---------------------------------------------------------------------
      1          6           0       -1.199087    0.692293    0.000000
      2          6           0        0.000000    1.384586    0.000000
      3          6           0        1.199087    0.692293    0.000000
      4          6           0        1.199087   -0.692293    0.000000
      5          6           0        0.000000   -1.384586    0.000000
      6          6           0       -1.199087   -0.692293    0.000000
      7          1           0       -2.134797    1.232526    0.000000
      8          1           0        0.000000    2.465051    0.000000
      9          1           0        2.134797    1.232526    0.000000
     10          1           0        2.134797   -1.232526    0.000000
     11          1           0        0.000000   -2.465051    0.000000
     12          1           0       -2.134797   -1.232526    0.000000
 ---------------------------------------------------------------------
                    Distance matrix (angstroms):
                    1          2          3          4          5
     1  C    0.000000
     2  C    1.384586   0.000000
     3  C    2.398173   1.384586   0.000000
     4  C    2.769172   2.398173   1.384586   0.000000
     5  C    2.398173   2.769172   2.398173   1.384586   0.000000
     6  C    1.384586   2.398173   2.769172   2.398173   1.384586
     7  H    1.080465   2.140206   3.377371   3.849638   3.377371
     8  H    2.140206   1.080465   2.140206   3.377371   3.849637
     9  H    3.377371   2.140206   1.080465   2.140206   3.377371
    10  H    3.849638   3.377371   2.140206   1.080465   2.140206
    11  H    3.377371   3.849637   3.377371   2.140206   1.080465
    12  H    2.140206   3.377371   3.849638   3.377371   2.140206
                    6          7          8          9         10
     6  C    0.000000
     7  H    2.140206   0.000000
     8  H    3.377371   2.465051   0.000000
     9  H    3.849638   4.269594   2.465051   0.000000
    10  H    3.377371   4.930103   4.269594   2.465052   0.000000
    11  H    2.140206   4.269594   4.930103   4.269594   2.465051
    12  H    1.080465   2.465052   4.269594   4.930103   4.269594
                   11         12
    11  H    0.000000
    12  H    2.465051   0.000000
 Stoichiometry    C6H6
 Framework group  D6H[3C2'(HC.CH)]
 Deg. of freedom     2
 Full point group                 D6H     NOp  24
 Largest Abelian subgroup         D2H     NOp   8
 Largest concise Abelian subgroup D2      NOp   4
                         Standard orientation:                         
 ---------------------------------------------------------------------
 Center     Atomic      Atomic             Coordinates (Angstroms)
 Number     Number       Type             X           Y           Z
 ---------------------------------------------------------------------
      1          6           0        0.000000    1.384586    0.000000
      2          6           0        1.199087    0.692293    0.000000
      3          6           0        1.199087   -0.692293    0.000000
      4          6           0        0.000000   -1.384586    0.000000
      5          6           0       -1.199087   -0.692293    0.000000
      6          6           0       -1.199087    0.692293    0.000000
      7          1           0        0.000000    2.465052    0.000000
      8          1           0        2.134797    1.232526    0.000000
      9          1           0        2.134797   -1.232526    0.000000
     10          1           0        0.000000   -2.465052    0.000000
     11          1           0       -2.134797   -1.232526    0.000000
     12          1           0       -2.134797    1.232526    0.000000
 ---------------------------------------------------------------------
 Rotational constants (GHZ):      5.7832346      5.7832346      2.8916173
 Standard basis: 6-311++G(d,p) (5D, 7F)
 There are    40 symmetry adapted cartesian basis functions of AG  symmetry.
 There are    29 symmetry adapted cartesian basis functions of B1G symmetry.
 There are     8 symmetry adapted cartesian basis functions of B2G symmetry.
 There are    13 symmetry adapted cartesian basis functions of B3G symmetry.
 There are     8 symmetry adapted cartesian basis functions of AU  symmetry.
 There are    13 symmetry adapted cartesian basis functions of B1U symmetry.
 There are    40 symmetry adapted cartesian basis functions of B2U symmetry.
 There are    29 symmetry adapted cartesian basis functions of B3U symmetry.
 There are    38 symmetry adapted basis functions of AG  symmetry.
 There are    28 symmetry adapted basis functions of B1G symmetry.
 There are     8 symmetry adapted basis functions of B2G symmetry.
 There are    13 symmetry adapted basis functions of B3G symmetry.
 There are     8 symmetry adapted basis functions of AU  symmetry.
 There are    13 symmetry adapted basis functions of B1U symmetry.
 There are    38 symmetry adapted basis functions of B2U symmetry.
 There are    28 symmetry adapted basis functions of B3U symmetry.
   174 basis functions,   270 primitive gaussians,   180 cartesian basis functions
    21 alpha electrons       21 beta electrons
       nuclear repulsion energy       204.8714767705 Hartrees.
 NAtoms=   12 NActive=   12 NUniq=    2 SFac= 4.00D+00 NAtFMM=   60 NAOKFM=F Big=F
 Integral buffers will be    262144 words long.
 Raffenetti 1 integral format.
 Two-electron integral symmetry is turned on.
 One-electron integrals computed using PRISM.
 NBasis=   174 RedAO= T EigKep=  1.20D-05  NBF=    38    28     8    13     8    13    38    28
 NBsUse=   173 1.00D-06 EigRej=  8.44D-07 NBFU=    38    28     8    13     8    13    37    28
 ExpMin= 3.60D-02 ExpMax= 4.56D+03 ExpMxC= 6.82D+02 IAcc=3 IRadAn=         5 AccDes= 0.00D+00
 Harris functional with IExCor=  205 and IRadAn=       5 diagonalized for initial guess.
 HarFok:  IExCor=  205 AccDes= 0.00D+00 IRadAn=         5 IDoV= 1 UseB2=F ITyADJ=14
 ICtDFT=  3500011 ScaDFX=  1.000000  1.000000  1.000000  1.000000
 FoFCou: FMM=F IPFlag=           0 FMFlag=      100000 FMFlg1=           0
         NFxFlg=           0 DoJE=T BraDBF=F KetDBF=T FulRan=T
         wScrn=  0.000000 ICntrl=     500 IOpCl=  0 I1Cent=   200000004 NGrid=           0
         NMat0=    1 NMatS0=      1 NMatT0=    0 NMatD0=    1 NMtDS0=    0 NMtDT0=    0
 Petite list used in FoFCou.
 Initial guess orbital symmetries:
       Occupied  (A1G) (E1U) (E1U) (E2G) (E2G) (B1U) (A1G) (E1U)
                 (E1U) (E2G) (E2G) (A1G) (B2U) (B1U) (E1U) (E1U)
                 (A2U) (E2G) (E2G) (E1G) (E1G)
       Virtual   (E2U) (E2U) (A1G) (B2G) (E1U) (E1U) (E2G) (E2G)
                 (A1G) (A2U) (B1U) (E1G) (E1G) (B2U) (A1G) (E1U)
                 (E1U) (E2G) (E2G) (B2G) (B2G) (E2U) (E2U) (E2G)
                 (E2G) (B2G) (B2G) (B2G) (B2G) (E2G) (E2G) (A1G)
                 (E2G) (E2G) (B2G) (B2G) (B1U) (A2G) (E1U) (E1U)
                 (E2G) (E2G) (B2U) (A2G) (A1G) (B1U) (A2U) (E1U)
                 (E1U) (E2G) (E2G) (A1G) (E1G) (E1G) (E2U) (E2U)
                 (B2G) (B2G) (E2G) (E2G) (B2G) (B2G) (A1G) (B2G)
                 (A2G) (B2G) (B2G) (E1U) (E1U) (A2U) (E2G) (E2G)
                 (B1G) (E1G) (E1G) (E2G) (E2G) (E2U) (E2U) (A1G)
                 (B1U) (B2U) (E1U) (E1U) (A1G) (E2U) (E2U) (B2G)
                 (E2G) (E2G) (E1U) (E1U) (A2U) (E1G) (E1G) (E2G)
                 (E2G) (B2U) (E1G) (E1G) (E1U) (E1U) (A2G) (B1U)
                 (E2G) (E2G) (E2U) (E2U) (B2G) (A1U) (A1G) (E2G)
                 (E2G) (E1U) (E1U) (A2U) (E1U) (E1U) (B1U) (A1G)
                 (E1G) (E1G) (?A) (?A) (?A) (E2G) (E2G) (E2U) (E2U)
                 (A2G) (E2G) (E2G) (B2U) (B2G) (E2G) (E2G) (E1U)
                 (E1U) (A1G) (B1U) (E2G) (E2G) (B1U) (E1U) (E1U)
                 (A2G) (A1G) (E1U) (E1U) (E2G) (E2G) (B1U)
 The electronic state of the initial guess is 1-A1G.
 Requested convergence on RMS density matrix=1.00D-08 within 128 cycles.
 Requested convergence on MAX density matrix=1.00D-06.
 Requested convergence on             energy=1.00D-06.
 No special actions if energy rises.
 Density matrix breaks symmetry, PCut= 1.00D-04
 Density has only Abelian symmetry.
 Density matrix breaks symmetry, PCut= 1.00D-07
 Density has only Abelian symmetry.
 Density matrix breaks symmetry, PCut= 1.00D-07
 Density has only Abelian symmetry.
 Density matrix breaks symmetry, PCut= 1.00D-07
 Density has only Abelian symmetry.
 Density matrix breaks symmetry, PCut= 1.00D-07
 Density has only Abelian symmetry.
 Density matrix breaks symmetry, PCut= 1.00D-07
 Density has only Abelian symmetry.
 Initial convergence to 1.0D-05 achieved.  Increase integral accuracy.
 Density matrix breaks symmetry, PCut= 1.00D-07
 Density has only Abelian symmetry.
 Density matrix breaks symmetry, PCut= 1.00D-07
 Density has only Abelian symmetry.
 Density matrix breaks symmetry, PCut= 1.00D-07
 Density has only Abelian symmetry.
 Density matrix breaks symmetry, PCut= 1.00D-07
 Density has only Abelian symmetry.
 SCF Done:  E(RHF) =  -230.756729978     A.U. after    9 cycles
            NFock=  9  Conv=0.95D-08     -V/T= 2.0004
 ExpMin= 3.60D-02 ExpMax= 4.56D+03 ExpMxC= 6.82D+02 IAcc=3 IRadAn=         5 AccDes= 0.00D+00
 HarFok:  IExCor=  205 AccDes= 0.00D+00 IRadAn=         5 IDoV=-2 UseB2=F ITyADJ=14
 ICtDFT= 12500011 ScaDFX=  1.000000  1.000000  1.000000  1.000000
 Range of M.O.s used for correlation:     7   173
 NBasis=   174 NAE=    21 NBE=    21 NFC=     6 NFV=     0
 NROrb=    167 NOA=    15 NOB=    15 NVA=   152 NVB=   152

 **** Warning!!: The largest alpha MO coefficient is  0.10229374D+03

 Fully direct method using O(ONN) memory.
 JobTyp=1 Pass  1:  I=   7 to   7 NPSUse=  4 ParTrn=T ParDer=T DoDerP=T.
 JobTyp=1 Pass  2:  I=   8 to   8 NPSUse=  4 ParTrn=T ParDer=T DoDerP=T.
 JobTyp=1 Pass  3:  I=   9 to   9 NPSUse=  4 ParTrn=T ParDer=T DoDerP=T.
 JobTyp=1 Pass  4:  I=  10 to  10 NPSUse=  4 ParTrn=T ParDer=T DoDerP=T.
 JobTyp=1 Pass  5:  I=  11 to  11 NPSUse=  4 ParTrn=T ParDer=T DoDerP=T.
 JobTyp=1 Pass  6:  I=  12 to  12 NPSUse=  4 ParTrn=T ParDer=T DoDerP=T.
 JobTyp=1 Pass  7:  I=  13 to  13 NPSUse=  4 ParTrn=T ParDer=T DoDerP=T.
 JobTyp=1 Pass  8:  I=  14 to  14 NPSUse=  4 ParTrn=T ParDer=T DoDerP=T.
 JobTyp=1 Pass  9:  I=  15 to  15 NPSUse=  4 ParTrn=T ParDer=T DoDerP=T.
 JobTyp=1 Pass 10:  I=  16 to  16 NPSUse=  4 ParTrn=T ParDer=T DoDerP=T.
 JobTyp=1 Pass 11:  I=  17 to  17 NPSUse=  4 ParTrn=T ParDer=T DoDerP=T.
 JobTyp=1 Pass 12:  I=  18 to  18 NPSUse=  4 ParTrn=T ParDer=T DoDerP=T.
 JobTyp=1 Pass 13:  I=  19 to  19 NPSUse=  4 ParTrn=T ParDer=T DoDerP=T.
 JobTyp=1 Pass 14:  I=  20 to  20 NPSUse=  4 ParTrn=T ParDer=T DoDerP=T.
 JobTyp=1 Pass 15:  I=  21 to  21 NPSUse=  4 ParTrn=T ParDer=T DoDerP=T.
 Spin components of T(2) and E(2):
     alpha-alpha T2 =       0.4193887451D-01 E2=     -0.1076190219D+00
     alpha-beta  T2 =       0.2201299866D+00 E2=     -0.6107221676D+00
     beta-beta   T2 =       0.4193887451D-01 E2=     -0.1076190219D+00
 ANorm=    0.1141931581D+01
 E2 =    -0.8259602113D+00 EUMP2 =    -0.23158269018980D+03
          IDoAtm=111111111111
          Differentiating once with respect to electric field.
                with respect to dipole field.
          Differentiating once with respect to nuclear coordinates.
          There are     1 degrees of freedom in the 1st order CPHF.  IDoFFX=0 NUNeed=     1.
 LinEq1:  Iter=  0 NonCon=     1 RMS=3.35D-03 Max=7.07D-02 NDo=     1
 AX will form     1 AO Fock derivatives at one time.
 LinEq1:  Iter=  1 NonCon=     1 RMS=8.16D-04 Max=1.48D-02 NDo=     1
 LinEq1:  Iter=  2 NonCon=     1 RMS=2.29D-04 Max=5.26D-03 NDo=     1
 LinEq1:  Iter=  3 NonCon=     1 RMS=4.75D-05 Max=8.17D-04 NDo=     1
 LinEq1:  Iter=  4 NonCon=     1 RMS=6.85D-06 Max=9.98D-05 NDo=     1
 LinEq1:  Iter=  5 NonCon=     1 RMS=6.35D-07 Max=8.48D-06 NDo=     1
 LinEq1:  Iter=  6 NonCon=     1 RMS=5.58D-08 Max=1.06D-06 NDo=     1
 LinEq1:  Iter=  7 NonCon=     1 RMS=4.23D-09 Max=4.32D-08 NDo=     1
 LinEq1:  Iter=  8 NonCon=     1 RMS=3.44D-10 Max=5.21D-09 NDo=     1
 LinEq1:  Iter=  9 NonCon=     0 RMS=2.86D-11 Max=3.51D-10 NDo=     1
 Linear equations converged to 1.000D-10 1.000D-09 after     9 iterations.
 End of Minotr F.D. properties file   721 does not exist.
 End of Minotr F.D. properties file   722 does not exist.
 End of Minotr F.D. properties file   788 does not exist.

 **********************************************************************

            Population analysis using the SCF density.

 **********************************************************************

 Orbital symmetries:
       Occupied  (A1G) (E1U) (E1U) (E2G) (E2G) (B1U) (A1G) (E1U)
                 (E1U) (E2G) (E2G) (A1G) (B1U) (B2U) (E1U) (E1U)
                 (A2U) (E2G) (E2G) (E1G) (E1G)
       Virtual   (A1G) (E1U) (E1U) (E2G) (E2G) (B2G) (E2U) (E2U)
                 (A2U) (E1G) (E1G) (A1G) (B2U) (E2G) (E2G) (E1U)
                 (E1U) (A1G) (B2G) (E2G) (E2G) (E2U) (E2U) (B2G)
                 (B2G) (B2G) (B2G) (B2G) (E2G) (E2G) (A2G) (A1G)
                 (B2G) (B2G) (B2G) (B2G) (E2G) (E2G) (E2G) (E2G)
                 (E1U) (E1U) (B2U) (A1G) (A2U) (B2G) (B2G) (B2G)
                 (E2G) (E2G) (E1G) (E1G) (A2G) (A1G) (E2U) (E2U)
                 (B2G) (B2G) (B2G) (B2G) (E2G) (E2G) (A1G) (E1U)
                 (E1U) (E2G) (E2G) (B1U) (E1U) (E1U) (A2G) (A2U)
                 (E2G) (E2G) (B1G) (E1G) (E1G) (E2U) (E2U) (B1U)
                 (A1G) (B2U) (E1U) (E1U) (A1G) (B2G) (E2U) (E2U)
                 (E2G) (E2G) (E1U) (E1U) (A2U) (E1G) (E1G) (E2G)
                 (E2G) (B2U) (A2G) (E1G) (E1G) (E1U) (E1U) (B1U)
                 (E2G) (E2G) (E2U) (E2U) (B2G) (A1U) (A1G) (E2G)
                 (E2G) (?A) (?A) (?A) (?A) (?A) (A1G) (?B) (?B)
                 (?B) (E2G) (E2G) (A2U) (E1G) (E1G) (A2G) (E2U)
                 (E2U) (E2G) (E2G) (B2G) (B2U) (E2G) (E2G) (E1U)
                 (E1U) (A1G) (B1U) (E2G) (E2G) (B1U) (E1U) (E1U)
                 (A2G) (A1G) (E1U) (E1U) (E2G) (E2G) (B1U)
 The electronic state is 1-A1G.
 Alpha  occ. eigenvalues --  -11.23521 -11.23461 -11.23461 -11.23332 -11.23332
 Alpha  occ. eigenvalues --  -11.23269  -1.15824  -1.01970  -1.01970  -0.82718
 Alpha  occ. eigenvalues --   -0.82718  -0.71438  -0.64301  -0.62460  -0.59101
 Alpha  occ. eigenvalues --   -0.59101  -0.50609  -0.49612  -0.49612  -0.33874
 Alpha  occ. eigenvalues --   -0.33874
 Alpha virt. eigenvalues --    0.04206   0.04899   0.04899   0.06641   0.06641
 Alpha virt. eigenvalues --    0.09808   0.11116   0.11116   0.12881   0.15238
 Alpha virt. eigenvalues --    0.15238   0.15788   0.16310   0.18173   0.18173
 Alpha virt. eigenvalues --    0.18333   0.18334   0.19194   0.20981   0.21249
 Alpha virt. eigenvalues --    0.21249   0.21709   0.21709   0.22815   0.22816
 Alpha virt. eigenvalues --    0.24749   0.25095   0.25203   0.28887   0.28887
 Alpha virt. eigenvalues --    0.30347   0.33587   0.37367   0.40967   0.40978
 Alpha virt. eigenvalues --    0.41312   0.43297   0.43297   0.50115   0.50115
 Alpha virt. eigenvalues --    0.51317   0.51317   0.60291   0.61214   0.71445
 Alpha virt. eigenvalues --    0.72296   0.72306   0.72662   0.75386   0.75386
 Alpha virt. eigenvalues --    0.75585   0.75585   0.75806   0.79713   0.82020
 Alpha virt. eigenvalues --    0.82020   0.87193   0.88859   0.94235   0.94240
 Alpha virt. eigenvalues --    0.95689   0.95689   0.97497   1.01691   1.01691
 Alpha virt. eigenvalues --    1.05917   1.05917   1.11774   1.12571   1.12571
 Alpha virt. eigenvalues --    1.14041   1.16752   1.22089   1.22089   1.25254
 Alpha virt. eigenvalues --    1.32696   1.32696   1.39684   1.39684   1.50315
 Alpha virt. eigenvalues --    1.55207   1.71528   1.79479   1.79480   1.80365
 Alpha virt. eigenvalues --    1.83164   1.85117   1.85117   1.91561   1.91561
 Alpha virt. eigenvalues --    1.93990   1.93990   1.99085   2.05734   2.05734
 Alpha virt. eigenvalues --    2.11153   2.11153   2.13797   2.24198   2.24735
 Alpha virt. eigenvalues --    2.24735   2.25479   2.25482   2.30451   2.35639
 Alpha virt. eigenvalues --    2.35639   2.38598   2.38598   2.65161   2.67962
 Alpha virt. eigenvalues --    2.74702   2.75693   2.75693   2.82187   2.82190
 Alpha virt. eigenvalues --    2.96794   2.97777   2.97778   2.98908   3.02400
 Alpha virt. eigenvalues --    3.02400   3.03742   3.04718   3.04718   3.06258
 Alpha virt. eigenvalues --    3.19483   3.19483   3.28569   3.29730   3.29730
 Alpha virt. eigenvalues --    3.34895   3.34895   3.49184   3.57204   3.79699
 Alpha virt. eigenvalues --    3.79699   3.92315   3.92315   3.93549   4.11816
 Alpha virt. eigenvalues --    4.41305   4.41305   4.50689   4.57794   4.57795
 Alpha virt. eigenvalues --    5.29485  24.74843  25.15854  25.15854  25.29446
 Alpha virt. eigenvalues --   25.29446  25.40389
          Condensed to atoms (all electrons):
               1          2          3          4          5          6
     1  C    5.007932   0.502813  -0.112177   0.063397  -0.112177   0.502813
     2  C    0.502813   4.993378   0.508506  -0.112177   0.068827  -0.115662
     3  C   -0.112177   0.508506   4.993378   0.502813  -0.115662   0.068827
     4  C    0.063397  -0.112177   0.502813   5.007932   0.502813  -0.112177
     5  C   -0.112177   0.068827  -0.115662   0.502813   4.993378   0.508506
     6  C    0.502813  -0.115662   0.068827  -0.112177   0.508506   4.993378
     7  H    0.406678  -0.039742   0.005315  -0.000490   0.005315  -0.039742
     8  H   -0.037063   0.404014  -0.037930   0.003774   0.000080   0.003896
     9  H    0.003774  -0.037930   0.404014  -0.037063   0.003896   0.000080
    10  H   -0.000490   0.005315  -0.039742   0.406678  -0.039742   0.005315
    11  H    0.003774   0.000080   0.003896  -0.037063   0.404014  -0.037930
    12  H   -0.037063   0.003896   0.000080   0.003774  -0.037930   0.404014
               7          8          9         10         11         12
     1  C    0.406678  -0.037063   0.003774  -0.000490   0.003774  -0.037063
     2  C   -0.039742   0.404014  -0.037930   0.005315   0.000080   0.003896
     3  C    0.005315  -0.037930   0.404014  -0.039742   0.003896   0.000080
     4  C   -0.000490   0.003774  -0.037063   0.406678  -0.037063   0.003774
     5  C    0.005315   0.000080   0.003896  -0.039742   0.404014  -0.037930
     6  C   -0.039742   0.003896   0.000080   0.005315  -0.037930   0.404014
     7  H    0.479421  -0.001197   0.000744   0.000079   0.000744  -0.001197
     8  H   -0.001197   0.478516  -0.001037   0.000744   0.000095   0.000719
     9  H    0.000744  -0.001037   0.478516  -0.001197   0.000719   0.000095
    10  H    0.000079   0.000744  -0.001197   0.479421  -0.001197   0.000744
    11  H    0.000744   0.000095   0.000719  -0.001197   0.478516  -0.001037
    12  H   -0.001197   0.000719   0.000095   0.000744  -0.001037   0.478516
 Mulliken charges:
               1
     1  C   -0.192211
     2  C   -0.181318
     3  C   -0.181318
     4  C   -0.192211
     5  C   -0.181318
     6  C   -0.181318
     7  H    0.184072
     8  H    0.185388
     9  H    0.185388
    10  H    0.184072
    11  H    0.185388
    12  H    0.185388
 Sum of Mulliken charges =   0.00000
 Mulliken charges with hydrogens summed into heavy atoms:
               1
     1  C   -0.008139
     2  C    0.004070
     3  C    0.004070
     4  C   -0.008139
     5  C    0.004070
     6  C    0.004070
 Electronic spatial extent (au):  <R**2>=            454.7476
 Charge=              0.0000 electrons
 Dipole moment (field-independent basis, Debye):
    X=              0.0000    Y=              0.0000    Z=              0.0000  Tot=              0.0000
 Quadrupole moment (field-independent basis, Debye-Ang):
   XX=            -31.9584   YY=            -31.9580   ZZ=            -41.1230
   XY=              0.0000   XZ=              0.0000   YZ=              0.0000
 Traceless Quadrupole moment (field-independent basis, Debye-Ang):
   XX=              3.0548   YY=              3.0551   ZZ=             -6.1099
   XY=              0.0000   XZ=              0.0000   YZ=              0.0000
 Octapole moment (field-independent basis, Debye-Ang**2):
  XXX=              0.0000  YYY=              0.0000  ZZZ=              0.0000  XYY=              0.0000
  XXY=              0.0000  XXZ=              0.0000  XZZ=              0.0000  YZZ=              0.0000
  YYZ=              0.0000  XYZ=              0.0000
 Hexadecapole moment (field-independent basis, Debye-Ang**3):
 XXXX=           -267.8357 YYYY=           -267.8273 ZZZZ=            -51.6365 XXXY=              0.0000
 XXXZ=              0.0000 YYYX=              0.0000 YYYZ=              0.0000 ZZZX=              0.0000
 ZZZY=              0.0000 XXYY=            -89.2769 XXZZ=            -65.2217 YYZZ=            -65.2213
 XXYZ=              0.0000 YYXZ=              0.0000 ZZXY=              0.0000
 N-N= 2.048714767705D+02 E-N=-9.467255573257D+02  KE= 2.306603570113D+02
 Symmetry AG   KE= 7.449481452440D+01
 Symmetry B1G  KE= 3.771082887799D+01
 Symmetry B2G  KE= 2.048965332128D+00
 Symmetry B3G  KE= 2.048965279348D+00
 Symmetry AU   KE=-1.116497705145D-16
 Symmetry B1U  KE= 1.746539035172D+00
 Symmetry B2U  KE= 7.212299718181D+01
 Symmetry B3U  KE= 4.048724678046D+01
 Density matrix has only Abelian symmetry.
 Density matrix has only Abelian symmetry.
 Calling FoFJK, ICntrl=  10002127 FMM=F ISym2X=1 I1Cent= 0 IOpClX= 0 NMat=1 NMatS=1 NMatT=0.
 ***** Axes restored to original set *****
 -------------------------------------------------------------------
 Center     Atomic                   Forces (Hartrees/Bohr)
 Number     Number              X              Y              Z
 -------------------------------------------------------------------
      1        6          -0.009559795    0.005519350    0.000000000
      2        6           0.000000135    0.011037620    0.000000000
      3        6           0.009558793    0.005518926    0.000000000
      4        6           0.009559795   -0.005519350    0.000000000
      5        6          -0.000000135   -0.011037620    0.000000000
      6        6          -0.009558793   -0.005518926    0.000000000
      7        1          -0.003957058    0.002284609    0.000000000
      8        1           0.000000038    0.004569813    0.000000000
      9        1           0.003957555    0.002284939    0.000000000
     10        1           0.003957058   -0.002284609    0.000000000
     11        1          -0.000000038   -0.004569813    0.000000000
     12        1          -0.003957555   -0.002284939    0.000000000
 -------------------------------------------------------------------
 Cartesian Forces:  Max     0.011037620 RMS     0.004877130

 GradGradGradGradGradGradGradGradGradGradGradGradGradGradGradGradGradGrad
 Berny optimization.
 FormGI is forming the generalized inverse of G from B-inverse, IUseBI=4.
 Internal  Forces:  Max     0.015607629 RMS     0.005420930
 Search for a local minimum.
 Step number   1 out of a maximum of   64
 All quantities printed in internal units (Hartrees-Bohrs-Radians)
 Mixed Optimization -- RFO/linear search
 Second derivative matrix not updated -- first step.
 ITU=  0
     Eigenvalues ---    0.02293   0.02293   0.02293   0.02293   0.02293
     Eigenvalues ---    0.02293   0.02293   0.02293   0.02293   0.16000
     Eigenvalues ---    0.16000   0.16000   0.16000   0.16000   0.16000
     Eigenvalues ---    0.22000   0.22000   0.22000   0.35938   0.35938
     Eigenvalues ---    0.35938   0.35938   0.35938   0.35938   0.43551
     Eigenvalues ---    0.43551   0.48273   0.48273   0.48273   0.48273
 RFO step:  Lambda=-3.35223790D-03 EMin= 2.29265272D-02
 Linear search not attempted -- first point.
 Iteration  1 RMS(Cart)=  0.01834736 RMS(Int)=  0.00000000
 Iteration  2 RMS(Cart)=  0.00000001 RMS(Int)=  0.00000000
 Variable       Old X    -DE/DX   Delta X   Delta X   Delta X     New X
                                 (Linear)    (Quad)   (Total)
    R1        2.61649   0.01561   0.00000   0.03211   0.03211   2.64860
    R2        2.61649   0.01561   0.00000   0.03211   0.03211   2.64860
    R3        2.04178   0.00457   0.00000   0.01260   0.01260   2.05438
    R4        2.61649   0.01561   0.00000   0.03211   0.03211   2.64860
    R5        2.04178   0.00457   0.00000   0.01260   0.01260   2.05438
    R6        2.61649   0.01561   0.00000   0.03211   0.03211   2.64860
    R7        2.04178   0.00457   0.00000   0.01260   0.01260   2.05438
    R8        2.61649   0.01561   0.00000   0.03211   0.03211   2.64860
    R9        2.04178   0.00457   0.00000   0.01260   0.01260   2.05438
   R10        2.61649   0.01561   0.00000   0.03211   0.03211   2.64860
   R11        2.04178   0.00457   0.00000   0.01260   0.01260   2.05438
   R12        2.04178   0.00457   0.00000   0.01260   0.01260   2.05438
    A1        2.09440   0.00000   0.00000   0.00000   0.00000   2.09439
    A2        2.09440   0.00000   0.00000   0.00000   0.00000   2.09440
    A3        2.09440   0.00000   0.00000   0.00000   0.00000   2.09440
    A4        2.09440   0.00000   0.00000   0.00000   0.00000   2.09440
    A5        2.09440   0.00000   0.00000   0.00000   0.00000   2.09440
    A6        2.09440   0.00000   0.00000   0.00000   0.00000   2.09439
    A7        2.09440   0.00000   0.00000   0.00000   0.00000   2.09440
    A8        2.09440   0.00000   0.00000   0.00000   0.00000   2.09439
    A9        2.09440   0.00000   0.00000   0.00000   0.00000   2.09440
   A10        2.09440   0.00000   0.00000   0.00000   0.00000   2.09439
   A11        2.09440   0.00000   0.00000   0.00000   0.00000   2.09440
   A12        2.09440   0.00000   0.00000   0.00000   0.00000   2.09440
   A13        2.09440   0.00000   0.00000   0.00000   0.00000   2.09440
   A14        2.09440   0.00000   0.00000   0.00000   0.00000   2.09440
   A15        2.09440   0.00000   0.00000   0.00000   0.00000   2.09439
   A16        2.09440   0.00000   0.00000   0.00000   0.00000   2.09440
   A17        2.09440   0.00000   0.00000   0.00000   0.00000   2.09440
   A18        2.09440   0.00000   0.00000   0.00000   0.00000   2.09439
    D1        0.00000   0.00000   0.00000   0.00000   0.00000   0.00000
    D2        3.14159   0.00000   0.00000   0.00000   0.00000   3.14159
    D3        3.14159   0.00000   0.00000   0.00000   0.00000   3.14159
    D4        0.00000   0.00000   0.00000   0.00000   0.00000   0.00000
    D5        0.00000   0.00000   0.00000   0.00000   0.00000   0.00000
    D6        3.14159   0.00000   0.00000   0.00000   0.00000   3.14159
    D7        3.14159   0.00000   0.00000   0.00000   0.00000   3.14159
    D8        0.00000   0.00000   0.00000   0.00000   0.00000   0.00000
    D9        0.00000   0.00000   0.00000   0.00000   0.00000   0.00000
   D10        3.14159   0.00000   0.00000   0.00000   0.00000   3.14159
   D11        3.14159   0.00000   0.00000   0.00000   0.00000   3.14159
   D12        0.00000   0.00000   0.00000   0.00000   0.00000   0.00000
   D13        0.00000   0.00000   0.00000   0.00000   0.00000   0.00000
   D14        3.14159   0.00000   0.00000   0.00000   0.00000   3.14159
   D15        3.14159   0.00000   0.00000   0.00000   0.00000   3.14159
   D16        0.00000   0.00000   0.00000   0.00000   0.00000   0.00000
   D17        0.00000   0.00000   0.00000   0.00000   0.00000   0.00000
   D18        3.14159   0.00000   0.00000   0.00000   0.00000   3.14159
   D19        3.14159   0.00000   0.00000   0.00000   0.00000   3.14159
   D20        0.00000   0.00000   0.00000   0.00000   0.00000   0.00000
   D21        0.00000   0.00000   0.00000   0.00000   0.00000   0.00000
   D22        3.14159   0.00000   0.00000   0.00000   0.00000   3.14159
   D23        3.14159   0.00000   0.00000   0.00000   0.00000   3.14159
   D24        0.00000   0.00000   0.00000   0.00000   0.00000   0.00000
         Item               Value     Threshold  Converged?
 Maximum Force            0.015608     0.000002     NO 
 RMS     Force            0.005421     0.000001     NO 
 Maximum Displacement     0.044706     0.000006     NO 
 RMS     Displacement     0.018347     0.000004     NO 
 Predicted change in Energy=-1.688083D-03
 GradGradGradGradGradGradGradGradGradGradGradGradGradGradGradGradGradGrad

                          Input orientation:                          
 ---------------------------------------------------------------------
 Center     Atomic      Atomic             Coordinates (Angstroms)
 Number     Number       Type             X           Y           Z
 ---------------------------------------------------------------------
      1          6           0       -1.213802    0.700789    0.000000
      2          6           0        0.000000    1.401577    0.000000
      3          6           0        1.213801    0.700788    0.000000
      4          6           0        1.213802   -0.700789    0.000000
      5          6           0        0.000000   -1.401577    0.000000
      6          6           0       -1.213801   -0.700788    0.000000
      7          1           0       -2.155285    1.244355    0.000000
      8          1           0        0.000000    2.488709    0.000000
      9          1           0        2.155285    1.244355    0.000000
     10          1           0        2.155285   -1.244355    0.000000
     11          1           0        0.000000   -2.488709    0.000000
     12          1           0       -2.155285   -1.244355    0.000000
 ---------------------------------------------------------------------
                    Distance matrix (angstroms):
                    1          2          3          4          5
     1  C    0.000000
     2  C    1.401577   0.000000
     3  C    2.427603   1.401577   0.000000
     4  C    2.803156   2.427603   1.401577   0.000000
     5  C    2.427603   2.803154   2.427602   1.401577   0.000000
     6  C    1.401577   2.427602   2.803154   2.427603   1.401577
     7  H    1.087131   2.161012   3.412654   3.890287   3.412654
     8  H    2.161012   1.087132   2.161012   3.412655   3.890286
     9  H    3.412655   2.161012   1.087132   2.161012   3.412654
    10  H    3.890287   3.412654   2.161012   1.087131   2.161012
    11  H    3.412655   3.890286   3.412654   2.161012   1.087132
    12  H    2.161012   3.412654   3.890286   3.412655   2.161012
                    6          7          8          9         10
     6  C    0.000000
     7  H    2.161012   0.000000
     8  H    3.412654   2.488709   0.000000
     9  H    3.890286   4.310570   2.488708   0.000000
    10  H    3.412654   4.977418   4.310570   2.488709   0.000000
    11  H    2.161012   4.310570   4.977418   4.310571   2.488709
    12  H    1.087132   2.488709   4.310571   4.977418   4.310570
                   11         12
    11  H    0.000000
    12  H    2.488708   0.000000
 Stoichiometry    C6H6
 Framework group  C2H[SGH(C6H6)]
 Deg. of freedom    11
 Full point group                 C2H     NOp   4
 Omega: Change in point group or standard orientation.

 Old FWG=D06H [3C2'(H1C1.C1H1)]
 New FWG=C02H [SGH(C6H6)]
 Largest Abelian subgroup         C2H     NOp   4
 Largest concise Abelian subgroup C2      NOp   2
                         Standard orientation:                         
 ---------------------------------------------------------------------
 Center     Atomic      Atomic             Coordinates (Angstroms)
 Number     Number       Type             X           Y           Z
 ---------------------------------------------------------------------
      1          6           0        0.000000    1.401578    0.000000
      2          6           0        1.213801    0.700789    0.000000
      3          6           0        1.213801   -0.700789    0.000000
      4          6           0        0.000000   -1.401578    0.000000
      5          6           0       -1.213801   -0.700789    0.000000
      6          6           0       -1.213801    0.700789    0.000000
      7          1           0        0.000000    2.488709    0.000000
      8          1           0        2.155286    1.244354    0.000000
      9          1           0        2.155286   -1.244354    0.000000
     10          1           0        0.000000   -2.488709    0.000000
     11          1           0       -2.155286   -1.244354    0.000000
     12          1           0       -2.155286    1.244354    0.000000
 ---------------------------------------------------------------------
 Rotational constants (GHZ):      5.6501359      5.6501319      2.8250670
 Standard basis: 6-311++G(d,p) (5D, 7F)
 There are    69 symmetry adapted cartesian basis functions of AG  symmetry.
 There are    21 symmetry adapted cartesian basis functions of BG  symmetry.
 There are    21 symmetry adapted cartesian basis functions of AU  symmetry.
 There are    69 symmetry adapted cartesian basis functions of BU  symmetry.
 There are    66 symmetry adapted basis functions of AG  symmetry.
 There are    21 symmetry adapted basis functions of BG  symmetry.
 There are    21 symmetry adapted basis functions of AU  symmetry.
 There are    66 symmetry adapted basis functions of BU  symmetry.
   174 basis functions,   270 primitive gaussians,   180 cartesian basis functions
    21 alpha electrons       21 beta electrons
       nuclear repulsion energy       202.5724497277 Hartrees.
 NAtoms=   12 NActive=   12 NUniq=    6 SFac= 4.00D+00 NAtFMM=   60 NAOKFM=F Big=F
 Integral buffers will be    262144 words long.
 Raffenetti 1 integral format.
 Two-electron integral symmetry is turned on.
 One-electron integrals computed using PRISM.
 NBasis=   174 RedAO= T EigKep=  1.12D-06  NBF=    66    21    21    66
 NBsUse=   174 1.00D-06 EigRej= -1.00D+00 NBFU=    66    21    21    66
 Initial guess from the checkpoint file:  "E:\- 5 Doutorado\Projetos\0 - aromaticidade roberta\cálculos\Aromaticity-test-set - mine\C6H6\opt\2-optfreq\gxx.chk"
 B after Tr=     0.000000    0.000000    0.000000
         Rot=    1.000000    0.000000    0.000000    0.000000 Ang=   0.00 deg.
 Initial guess orbital symmetries:
       Occupied  (AG) (BU) (BU) (AG) (AG) (BU) (AG) (BU) (BU) (AG)
                 (AG) (AG) (BU) (BU) (BU) (BU) (AU) (AG) (AG) (BG)
                 (BG)
       Virtual   (AG) (AG) (AG) (AG) (AG) (AG) (AG) (AG) (AG) (AG)
                 (AG) (AG) (AG) (AG) (AG) (AG) (AG) (AG) (AG) (AG)
                 (AG) (AG) (AG) (AG) (AG) (AG) (AG) (AG) (AG) (AG)
                 (AG) (AG) (AG) (AG) (AG) (AG) (AG) (AG) (AG) (AG)
                 (AG) (AG) (AG) (AG) (AG) (AG) (AG) (AG) (AG) (AG)
                 (AG) (AG) (AG) (AG) (AG) (AG) (AG) (BG) (BG) (BG)
                 (BG) (BG) (BG) (BG) (BG) (BG) (BG) (BG) (BG) (BG)
                 (BG) (BG) (BG) (BG) (BG) (BG) (AU) (AU) (AU) (AU)
                 (AU) (AU) (AU) (AU) (AU) (AU) (AU) (AU) (AU) (AU)
                 (AU) (AU) (AU) (AU) (AU) (AU) (BU) (BU) (BU) (BU)
                 (BU) (BU) (BU) (BU) (BU) (BU) (BU) (BU) (BU) (BU)
                 (BU) (BU) (BU) (BU) (BU) (BU) (BU) (BU) (BU) (BU)
                 (BU) (BU) (BU) (BU) (BU) (BU) (BU) (BU) (BU) (BU)
                 (BU) (BU) (BU) (BU) (BU) (BU) (BU) (BU) (BU) (BU)
                 (BU) (BU) (BU) (BU) (BU) (BU) (BU) (BU) (BU) (BU)
                 (BU) (BU) (BU)
 ExpMin= 3.60D-02 ExpMax= 4.56D+03 ExpMxC= 6.82D+02 IAcc=3 IRadAn=         5 AccDes= 0.00D+00
 Harris functional with IExCor=  205 and IRadAn=       5 diagonalized for initial guess.
 HarFok:  IExCor=  205 AccDes= 0.00D+00 IRadAn=         5 IDoV= 1 UseB2=F ITyADJ=14
 ICtDFT=  3500011 ScaDFX=  1.000000  1.000000  1.000000  1.000000
 FoFCou: FMM=F IPFlag=           0 FMFlag=      100000 FMFlg1=           0
         NFxFlg=           0 DoJE=T BraDBF=F KetDBF=T FulRan=T
         wScrn=  0.000000 ICntrl=     500 IOpCl=  0 I1Cent=   200000004 NGrid=           0
         NMat0=    1 NMatS0=      1 NMatT0=    0 NMatD0=    1 NMtDS0=    0 NMtDT0=    0
 Petite list used in FoFCou.
 Requested convergence on RMS density matrix=1.00D-08 within 128 cycles.
 Requested convergence on MAX density matrix=1.00D-06.
 Requested convergence on             energy=1.00D-06.
 No special actions if energy rises.
 Initial convergence to 1.0D-05 achieved.  Increase integral accuracy.
 SCF Done:  E(RHF) =  -230.754873023     A.U. after   10 cycles
            NFock= 10  Conv=0.72D-08     -V/T= 2.0019
 ExpMin= 3.60D-02 ExpMax= 4.56D+03 ExpMxC= 6.82D+02 IAcc=3 IRadAn=         5 AccDes= 0.00D+00
 HarFok:  IExCor=  205 AccDes= 0.00D+00 IRadAn=         5 IDoV=-2 UseB2=F ITyADJ=14
 ICtDFT= 12500011 ScaDFX=  1.000000  1.000000  1.000000  1.000000
 Range of M.O.s used for correlation:     7   174
 NBasis=   174 NAE=    21 NBE=    21 NFC=     6 NFV=     0
 NROrb=    168 NOA=    15 NOB=    15 NVA=   153 NVB=   153

 **** Warning!!: The largest alpha MO coefficient is  0.22831842D+03

 Fully direct method using O(ONN) memory.
 JobTyp=1 Pass  1:  I=   7 to   8 NPSUse=  3 ParTrn=F ParDer=T DoDerP=T.
 JobTyp=1 Pass  2:  I=   9 to  10 NPSUse=  3 ParTrn=F ParDer=T DoDerP=T.
 JobTyp=1 Pass  3:  I=  11 to  12 NPSUse=  3 ParTrn=F ParDer=T DoDerP=T.
 JobTyp=1 Pass  4:  I=  13 to  14 NPSUse=  3 ParTrn=F ParDer=T DoDerP=T.
 JobTyp=1 Pass  5:  I=  15 to  16 NPSUse=  3 ParTrn=F ParDer=T DoDerP=T.
 JobTyp=1 Pass  6:  I=  17 to  18 NPSUse=  3 ParTrn=F ParDer=T DoDerP=T.
 JobTyp=1 Pass  7:  I=  19 to  20 NPSUse=  3 ParTrn=F ParDer=T DoDerP=T.
 JobTyp=1 Pass  8:  I=  21 to  21 NPSUse=  3 ParTrn=F ParDer=T DoDerP=T.
 Spin components of T(2) and E(2):
     alpha-alpha T2 =       0.4258576174D-01 E2=     -0.1078133201D+00
     alpha-beta  T2 =       0.2242623996D+00 E2=     -0.6137472680D+00
     beta-beta   T2 =       0.4258576174D-01 E2=     -0.1078133201D+00
 ANorm=    0.1144304996D+01
 E2 =    -0.8293739083D+00 EUMP2 =    -0.23158424693147D+03
          IDoAtm=111111111111
          Differentiating once with respect to electric field.
                with respect to dipole field.
          Differentiating once with respect to nuclear coordinates.
          There are     1 degrees of freedom in the 1st order CPHF.  IDoFFX=0 NUNeed=     1.
 LinEq1:  Iter=  0 NonCon=     1 RMS=3.43D-03 Max=7.37D-02 NDo=     1
 AX will form     1 AO Fock derivatives at one time.
 LinEq1:  Iter=  1 NonCon=     1 RMS=8.50D-04 Max=1.54D-02 NDo=     1
 LinEq1:  Iter=  2 NonCon=     1 RMS=2.36D-04 Max=5.49D-03 NDo=     1
 LinEq1:  Iter=  3 NonCon=     1 RMS=4.94D-05 Max=8.68D-04 NDo=     1
 LinEq1:  Iter=  4 NonCon=     1 RMS=7.05D-06 Max=1.00D-04 NDo=     1
 LinEq1:  Iter=  5 NonCon=     1 RMS=6.46D-07 Max=8.85D-06 NDo=     1
 LinEq1:  Iter=  6 NonCon=     1 RMS=5.69D-08 Max=1.08D-06 NDo=     1
 LinEq1:  Iter=  7 NonCon=     1 RMS=4.30D-09 Max=4.40D-08 NDo=     1
 LinEq1:  Iter=  8 NonCon=     1 RMS=3.52D-10 Max=5.39D-09 NDo=     1
 LinEq1:  Iter=  9 NonCon=     0 RMS=2.95D-11 Max=3.75D-10 NDo=     1
 Linear equations converged to 1.000D-10 1.000D-09 after     9 iterations.
 End of Minotr F.D. properties file   721 does not exist.
 End of Minotr F.D. properties file   722 does not exist.
 End of Minotr F.D. properties file   788 does not exist.
 Calling FoFJK, ICntrl=  10002127 FMM=F ISym2X=1 I1Cent= 0 IOpClX= 0 NMat=1 NMatS=1 NMatT=0.
 ***** Axes restored to original set *****
 -------------------------------------------------------------------
 Center     Atomic                   Forces (Hartrees/Bohr)
 Number     Number              X              Y              Z
 -------------------------------------------------------------------
      1        6           0.000882611   -0.000509791    0.000000000
      2        6          -0.000000797   -0.001015085    0.000000000
      3        6          -0.000880421   -0.000508238    0.000000000
      4        6          -0.000882611    0.000509791    0.000000000
      5        6           0.000000797    0.001015085    0.000000000
      6        6           0.000880421    0.000508238    0.000000000
      7        1           0.000239422   -0.000138231    0.000000000
      8        1          -0.000000014   -0.000277032    0.000000000
      9        1          -0.000239897   -0.000138523    0.000000000
     10        1          -0.000239422    0.000138231    0.000000000
     11        1           0.000000014    0.000277032    0.000000000
     12        1           0.000239897    0.000138523    0.000000000
 -------------------------------------------------------------------
 Cartesian Forces:  Max     0.001015085 RMS     0.000430287

 GradGradGradGradGradGradGradGradGradGradGradGradGradGradGradGradGradGrad
 Berny optimization.
 Using GEDIIS/GDIIS optimizer.
 FormGI is forming the generalized inverse of G from B-inverse, IUseBI=4.
 Internal  Forces:  Max     0.001294032 RMS     0.000441033
 Search for a local minimum.
 Step number   2 out of a maximum of   64
 All quantities printed in internal units (Hartrees-Bohrs-Radians)
 Mixed Optimization -- En-DIIS/RFO-DIIS
 Update second derivatives using D2CorX and points    1    2
 DE= -1.56D-03 DEPred=-1.69D-03 R= 9.22D-01
 TightC=F SS=  1.41D+00  RLast= 8.45D-02 DXNew= 5.0454D-01 2.5346D-01
 Trust test= 9.22D-01 RLast= 8.45D-02 DXMaxT set to 3.00D-01
 ITU=  1  0
 Use linear search instead of GDIIS.
     Eigenvalues ---    0.02293   0.02293   0.02293   0.02293   0.02293
     Eigenvalues ---    0.02293   0.02293   0.02293   0.02293   0.16000
     Eigenvalues ---    0.16000   0.16000   0.16000   0.16000   0.16000
     Eigenvalues ---    0.22000   0.22000   0.22000   0.35938   0.35938
     Eigenvalues ---    0.35938   0.35938   0.35938   0.36082   0.43645
     Eigenvalues ---    0.43645   0.48273   0.48273   0.48273   0.52330
 RFO step:  Lambda=-1.42085287D-07 EMin= 2.29265272D-02
 Quartic linear search produced a step of -0.07282.
 Iteration  1 RMS(Cart)=  0.00130370 RMS(Int)=  0.00000000
 Iteration  2 RMS(Cart)=  0.00000000 RMS(Int)=  0.00000000
 ClnCor:  largest displacement from symmetrization is 6.82D-12 for atom    11.
 Variable       Old X    -DE/DX   Delta X   Delta X   Delta X     New X
                                 (Linear)    (Quad)   (Total)
    R1        2.64860  -0.00129  -0.00234  -0.00007  -0.00241   2.64619
    R2        2.64860  -0.00129  -0.00234  -0.00007  -0.00241   2.64619
    R3        2.05438  -0.00028  -0.00092   0.00024  -0.00067   2.05371
    R4        2.64860  -0.00129  -0.00234  -0.00007  -0.00241   2.64619
    R5        2.05438  -0.00028  -0.00092   0.00024  -0.00067   2.05371
    R6        2.64860  -0.00129  -0.00234  -0.00007  -0.00241   2.64619
    R7        2.05438  -0.00028  -0.00092   0.00024  -0.00067   2.05371
    R8        2.64860  -0.00129  -0.00234  -0.00007  -0.00241   2.64619
    R9        2.05438  -0.00028  -0.00092   0.00024  -0.00067   2.05371
   R10        2.64860  -0.00129  -0.00234  -0.00007  -0.00241   2.64619
   R11        2.05438  -0.00028  -0.00092   0.00024  -0.00067   2.05371
   R12        2.05438  -0.00028  -0.00092   0.00024  -0.00067   2.05371
    A1        2.09439   0.00000   0.00000   0.00001   0.00001   2.09440
    A2        2.09440   0.00000   0.00000   0.00000   0.00000   2.09439
    A3        2.09440   0.00000   0.00000   0.00000   0.00000   2.09439
    A4        2.09440   0.00000   0.00000  -0.00001  -0.00001   2.09439
    A5        2.09440   0.00000   0.00000   0.00000   0.00000   2.09440
    A6        2.09439   0.00000   0.00000   0.00000   0.00000   2.09440
    A7        2.09440   0.00000   0.00000   0.00000   0.00000   2.09440
    A8        2.09439   0.00000   0.00000   0.00000   0.00000   2.09440
    A9        2.09440   0.00000   0.00000   0.00000   0.00000   2.09439
   A10        2.09439   0.00000   0.00000   0.00001   0.00001   2.09440
   A11        2.09440   0.00000   0.00000   0.00000   0.00000   2.09439
   A12        2.09440   0.00000   0.00000   0.00000   0.00000   2.09439
   A13        2.09440   0.00000   0.00000  -0.00001  -0.00001   2.09439
   A14        2.09440   0.00000   0.00000   0.00000   0.00000   2.09440
   A15        2.09439   0.00000   0.00000   0.00000   0.00000   2.09440
   A16        2.09440   0.00000   0.00000   0.00000   0.00000   2.09440
   A17        2.09440   0.00000   0.00000   0.00000   0.00000   2.09439
   A18        2.09439   0.00000   0.00000   0.00000   0.00000   2.09440
    D1        0.00000   0.00000   0.00000   0.00000   0.00000   0.00000
    D2        3.14159   0.00000   0.00000   0.00000   0.00000   3.14159
    D3        3.14159   0.00000   0.00000   0.00000   0.00000   3.14159
    D4        0.00000   0.00000   0.00000   0.00000   0.00000   0.00000
    D5        0.00000   0.00000   0.00000   0.00000   0.00000   0.00000
    D6        3.14159   0.00000   0.00000   0.00000   0.00000   3.14159
    D7        3.14159   0.00000   0.00000   0.00000   0.00000   3.14159
    D8        0.00000   0.00000   0.00000   0.00000   0.00000   0.00000
    D9        0.00000   0.00000   0.00000   0.00000   0.00000   0.00000
   D10        3.14159   0.00000   0.00000   0.00000   0.00000   3.14159
   D11        3.14159   0.00000   0.00000   0.00000   0.00000   3.14159
   D12        0.00000   0.00000   0.00000   0.00000   0.00000   0.00000
   D13        0.00000   0.00000   0.00000   0.00000   0.00000   0.00000
   D14        3.14159   0.00000   0.00000   0.00000   0.00000   3.14159
   D15        3.14159   0.00000   0.00000   0.00000   0.00000   3.14159
   D16        0.00000   0.00000   0.00000   0.00000   0.00000   0.00000
   D17        0.00000   0.00000   0.00000   0.00000   0.00000   0.00000
   D18        3.14159   0.00000   0.00000   0.00000   0.00000   3.14159
   D19        3.14159   0.00000   0.00000   0.00000   0.00000   3.14159
   D20        0.00000   0.00000   0.00000   0.00000   0.00000   0.00000
   D21        0.00000   0.00000   0.00000   0.00000   0.00000   0.00000
   D22        3.14159   0.00000   0.00000   0.00000   0.00000   3.14159
   D23        3.14159   0.00000   0.00000   0.00000   0.00000   3.14159
   D24        0.00000   0.00000   0.00000   0.00000   0.00000   0.00000
         Item               Value     Threshold  Converged?
 Maximum Force            0.001294     0.000002     NO 
 RMS     Force            0.000441     0.000001     NO 
 Maximum Displacement     0.003076     0.000006     NO 
 RMS     Displacement     0.001304     0.000004     NO 
 Predicted change in Energy=-1.013681D-05
 GradGradGradGradGradGradGradGradGradGradGradGradGradGradGradGradGradGrad

                          Input orientation:                          
 ---------------------------------------------------------------------
 Center     Atomic      Atomic             Coordinates (Angstroms)
 Number     Number       Type             X           Y           Z
 ---------------------------------------------------------------------
      1          6           0       -1.212695    0.700150    0.000000
      2          6           0        0.000000    1.400306    0.000000
      3          6           0        1.212697    0.700153    0.000000
      4          6           0        1.212695   -0.700150    0.000000
      5          6           0        0.000000   -1.400306    0.000000
      6          6           0       -1.212697   -0.700153    0.000000
      7          1           0       -2.153870    1.243538    0.000000
      8          1           0        0.000000    2.487081    0.000000
      9          1           0        2.153873    1.243539    0.000000
     10          1           0        2.153870   -1.243538    0.000000
     11          1           0        0.000000   -2.487081    0.000000
     12          1           0       -2.153873   -1.243539    0.000000
 ---------------------------------------------------------------------
                    Distance matrix (angstroms):
                    1          2          3          4          5
     1  C    0.000000
     2  C    1.400303   0.000000
     3  C    2.425392   1.400303   0.000000
     4  C    2.800600   2.425396   1.400303   0.000000
     5  C    2.425396   2.800612   2.425399   1.400303   0.000000
     6  C    1.400303   2.425399   2.800606   2.425392   1.400303
     7  H    1.086775   2.159568   3.410138   3.887375   3.410142
     8  H    2.159572   1.086775   2.159571   3.410143   3.887387
     9  H    3.410140   2.159570   1.086775   2.159570   3.410144
    10  H    3.887375   3.410142   2.159570   1.086775   2.159568
    11  H    3.410143   3.887387   3.410146   2.159572   1.086775
    12  H    2.159570   3.410144   3.887381   3.410140   2.159570
                    6          7          8          9         10
     6  C    0.000000
     7  H    2.159570   0.000000
     8  H    3.410146   2.487078   0.000000
     9  H    3.887381   4.307743   2.487080   0.000000
    10  H    3.410138   4.974150   4.307746   2.487076   0.000000
    11  H    2.159571   4.307746   4.974163   4.307748   2.487078
    12  H    1.086775   2.487076   4.307748   4.974156   4.307743
                   11         12
    11  H    0.000000
    12  H    2.487080   0.000000
 Stoichiometry    C6H6
 Framework group  C2H[SGH(C6H6)]
 Deg. of freedom    11
 Full point group                 C2H     NOp   4
 Largest Abelian subgroup         C2H     NOp   4
 Largest concise Abelian subgroup C2      NOp   2
                         Standard orientation:                         
 ---------------------------------------------------------------------
 Center     Atomic      Atomic             Coordinates (Angstroms)
 Number     Number       Type             X           Y           Z
 ---------------------------------------------------------------------
      1          6           0       -0.000002    1.400300    0.000000
      2          6           0        1.212700    0.700155    0.000000
      3          6           0        1.212700   -0.700148    0.000000
      4          6           0        0.000002   -1.400300    0.000000
      5          6           0       -1.212700   -0.700155    0.000000
      6          6           0       -1.212700    0.700148    0.000000
      7          1           0       -0.000003    2.487075    0.000000
      8          1           0        2.153874    1.243544    0.000000
      9          1           0        2.153874   -1.243536    0.000000
     10          1           0        0.000003   -2.487075    0.000000
     11          1           0       -2.153874   -1.243544    0.000000
     12          1           0       -2.153874    1.243536    0.000000
 ---------------------------------------------------------------------
 Rotational constants (GHZ):      5.6598369      5.6598024      2.8299098
 Standard basis: 6-311++G(d,p) (5D, 7F)
 There are    69 symmetry adapted cartesian basis functions of AG  symmetry.
 There are    21 symmetry adapted cartesian basis functions of BG  symmetry.
 There are    21 symmetry adapted cartesian basis functions of AU  symmetry.
 There are    69 symmetry adapted cartesian basis functions of BU  symmetry.
 There are    66 symmetry adapted basis functions of AG  symmetry.
 There are    21 symmetry adapted basis functions of BG  symmetry.
 There are    21 symmetry adapted basis functions of AU  symmetry.
 There are    66 symmetry adapted basis functions of BU  symmetry.
   174 basis functions,   270 primitive gaussians,   180 cartesian basis functions
    21 alpha electrons       21 beta electrons
       nuclear repulsion energy       202.7389992582 Hartrees.
 NAtoms=   12 NActive=   12 NUniq=    6 SFac= 4.00D+00 NAtFMM=   60 NAOKFM=F Big=F
 Integral buffers will be    262144 words long.
 Raffenetti 1 integral format.
 Two-electron integral symmetry is turned on.
 One-electron integrals computed using PRISM.
 NBasis=   174 RedAO= T EigKep=  1.11D-06  NBF=    66    21    21    66
 NBsUse=   174 1.00D-06 EigRej= -1.00D+00 NBFU=    66    21    21    66
 Initial guess from the checkpoint file:  "E:\- 5 Doutorado\Projetos\0 - aromaticidade roberta\cálculos\Aromaticity-test-set - mine\C6H6\opt\2-optfreq\gxx.chk"
 B after Tr=     0.000000    0.000000    0.000000
         Rot=    1.000000    0.000000    0.000000   -0.000001 Ang=   0.00 deg.
 Initial guess orbital symmetries:
       Occupied  (AG) (BU) (BU) (AG) (AG) (BU) (AG) (BU) (BU) (AG)
                 (AG) (AG) (BU) (BU) (BU) (BU) (AU) (AG) (AG) (BG)
                 (BG)
       Virtual   (AG) (AG) (AG) (AG) (AG) (AG) (AG) (AG) (AG) (AG)
                 (AG) (AG) (AG) (AG) (AG) (AG) (AG) (AG) (AG) (AG)
                 (AG) (AG) (AG) (AG) (AG) (AG) (AG) (AG) (AG) (AG)
                 (AG) (AG) (AG) (AG) (AG) (AG) (AG) (AG) (AG) (AG)
                 (AG) (AG) (AG) (AG) (AG) (AG) (AG) (AG) (AG) (AG)
                 (AG) (AG) (AG) (AG) (AG) (AG) (AG) (BG) (BG) (BG)
                 (BG) (BG) (BG) (BG) (BG) (BG) (BG) (BG) (BG) (BG)
                 (BG) (BG) (BG) (BG) (BG) (BG) (AU) (AU) (AU) (AU)
                 (AU) (AU) (AU) (AU) (AU) (AU) (AU) (AU) (AU) (AU)
                 (AU) (AU) (AU) (AU) (AU) (AU) (BU) (BU) (BU) (BU)
                 (BU) (BU) (BU) (BU) (BU) (BU) (BU) (BU) (BU) (BU)
                 (BU) (BU) (BU) (BU) (BU) (BU) (BU) (BU) (BU) (BU)
                 (BU) (BU) (BU) (BU) (BU) (BU) (BU) (BU) (BU) (BU)
                 (BU) (BU) (BU) (BU) (BU) (BU) (BU) (BU) (BU) (BU)
                 (BU) (BU) (BU) (BU) (BU) (BU) (BU) (BU) (BU) (BU)
                 (BU) (BU) (BU)
 Requested convergence on RMS density matrix=1.00D-08 within 128 cycles.
 Requested convergence on MAX density matrix=1.00D-06.
 Requested convergence on             energy=1.00D-06.
 No special actions if energy rises.
 DSYEVD-2 returned Info=         100 IAlg= 4 N=    66 NDim=   174 NE2=      192256 trying  DSYEV.
 SCF Done:  E(RHF) =  -230.755129227     A.U. after    8 cycles
            NFock=  8  Conv=0.44D-08     -V/T= 2.0018
 ExpMin= 3.60D-02 ExpMax= 4.56D+03 ExpMxC= 6.82D+02 IAcc=3 IRadAn=         5 AccDes= 0.00D+00
 HarFok:  IExCor=  205 AccDes= 0.00D+00 IRadAn=         5 IDoV=-2 UseB2=F ITyADJ=14
 ICtDFT= 12500011 ScaDFX=  1.000000  1.000000  1.000000  1.000000
 Range of M.O.s used for correlation:     7   174
 NBasis=   174 NAE=    21 NBE=    21 NFC=     6 NFV=     0
 NROrb=    168 NOA=    15 NOB=    15 NVA=   153 NVB=   153

 **** Warning!!: The largest alpha MO coefficient is  0.22954343D+03

 Fully direct method using O(ONN) memory.
 JobTyp=1 Pass  1:  I=   7 to   8 NPSUse=  3 ParTrn=F ParDer=T DoDerP=T.
 JobTyp=1 Pass  2:  I=   9 to  10 NPSUse=  3 ParTrn=F ParDer=T DoDerP=T.
 JobTyp=1 Pass  3:  I=  11 to  12 NPSUse=  3 ParTrn=F ParDer=T DoDerP=T.
 JobTyp=1 Pass  4:  I=  13 to  14 NPSUse=  3 ParTrn=F ParDer=T DoDerP=T.
 JobTyp=1 Pass  5:  I=  15 to  16 NPSUse=  3 ParTrn=F ParDer=T DoDerP=T.
 JobTyp=1 Pass  6:  I=  17 to  18 NPSUse=  3 ParTrn=F ParDer=T DoDerP=T.
 JobTyp=1 Pass  7:  I=  19 to  20 NPSUse=  3 ParTrn=F ParDer=T DoDerP=T.
 JobTyp=1 Pass  8:  I=  21 to  21 NPSUse=  3 ParTrn=F ParDer=T DoDerP=T.
 Spin components of T(2) and E(2):
     alpha-alpha T2 =       0.4253806652D-01 E2=     -0.1077987924D+00
     alpha-beta  T2 =       0.2239618247D+00 E2=     -0.6135306570D+00
     beta-beta   T2 =       0.4253806652D-01 E2=     -0.1077987924D+00
 ANorm=    0.1144131967D+01
 E2 =    -0.8291282418D+00 EUMP2 =    -0.23158425746871D+03
          IDoAtm=111111111111
          Differentiating once with respect to electric field.
                with respect to dipole field.
          Differentiating once with respect to nuclear coordinates.
          There are     1 degrees of freedom in the 1st order CPHF.  IDoFFX=0 NUNeed=     1.
 LinEq1:  Iter=  0 NonCon=     1 RMS=3.42D-03 Max=6.56D-02 NDo=     1
 AX will form     1 AO Fock derivatives at one time.
 LinEq1:  Iter=  1 NonCon=     1 RMS=8.48D-04 Max=1.53D-02 NDo=     1
 LinEq1:  Iter=  2 NonCon=     1 RMS=2.36D-04 Max=5.46D-03 NDo=     1
 LinEq1:  Iter=  3 NonCon=     1 RMS=4.92D-05 Max=8.64D-04 NDo=     1
 LinEq1:  Iter=  4 NonCon=     1 RMS=7.03D-06 Max=1.00D-04 NDo=     1
 LinEq1:  Iter=  5 NonCon=     1 RMS=6.45D-07 Max=8.82D-06 NDo=     1
 LinEq1:  Iter=  6 NonCon=     1 RMS=5.68D-08 Max=1.08D-06 NDo=     1
 LinEq1:  Iter=  7 NonCon=     1 RMS=4.30D-09 Max=4.39D-08 NDo=     1
 LinEq1:  Iter=  8 NonCon=     1 RMS=3.65D-10 Max=5.40D-09 NDo=     1
 LinEq1:  Iter=  9 NonCon=     1 RMS=7.39D-11 Max=1.17D-09 NDo=     1
 LinEq1:  Iter= 10 NonCon=     0 RMS=1.61D-11 Max=1.96D-10 NDo=     1
 Linear equations converged to 1.000D-10 1.000D-09 after    10 iterations.
 End of Minotr F.D. properties file   721 does not exist.
 End of Minotr F.D. properties file   722 does not exist.
 End of Minotr F.D. properties file   788 does not exist.
 Calling FoFJK, ICntrl=  10002127 FMM=F ISym2X=1 I1Cent= 0 IOpClX= 0 NMat=1 NMatS=1 NMatT=0.
 ***** Axes restored to original set *****
 -------------------------------------------------------------------
 Center     Atomic                   Forces (Hartrees/Bohr)
 Number     Number              X              Y              Z
 -------------------------------------------------------------------
      1        6           0.000053897   -0.000030675    0.000000000
      2        6           0.000000016   -0.000065539    0.000000000
      3        6          -0.000054156   -0.000031538    0.000000000
      4        6          -0.000053897    0.000030675    0.000000000
      5        6          -0.000000016    0.000065539    0.000000000
      6        6           0.000054156    0.000031538    0.000000000
      7        1           0.000015516   -0.000009178    0.000000000
      8        1          -0.000000188   -0.000018287    0.000000000
      9        1          -0.000015748   -0.000009169    0.000000000
     10        1          -0.000015516    0.000009178    0.000000000
     11        1           0.000000188    0.000018287    0.000000000
     12        1           0.000015748    0.000009169    0.000000000
 -------------------------------------------------------------------
 Cartesian Forces:  Max     0.000065539 RMS     0.000026936

 GradGradGradGradGradGradGradGradGradGradGradGradGradGradGradGradGradGrad
 Berny optimization.
 Using GEDIIS/GDIIS optimizer.
 FormGI is forming the generalized inverse of G from B-inverse, IUseBI=4.
 Internal  Forces:  Max     0.000082193 RMS     0.000027867
 Search for a local minimum.
 Step number   3 out of a maximum of   64
 All quantities printed in internal units (Hartrees-Bohrs-Radians)
 Mixed Optimization -- En-DIIS/RFO-DIIS
 Swapping is turned off.
 Update second derivatives using D2CorX and points    1    2    3
 DE= -1.05D-05 DEPred=-1.01D-05 R= 1.04D+00
 TightC=F SS=  1.41D+00  RLast= 6.13D-03 DXNew= 5.0454D-01 1.8375D-02
 Trust test= 1.04D+00 RLast= 6.13D-03 DXMaxT set to 3.00D-01
 ITU=  1  1  0
     Eigenvalues ---    0.02293   0.02293   0.02293   0.02293   0.02293
     Eigenvalues ---    0.02293   0.02293   0.02293   0.02293   0.16000
     Eigenvalues ---    0.16000   0.16000   0.16000   0.16000   0.16000
     Eigenvalues ---    0.22000   0.22000   0.22000   0.35938   0.35938
     Eigenvalues ---    0.35938   0.35938   0.35938   0.36078   0.43638
     Eigenvalues ---    0.43638   0.48273   0.48273   0.48273   0.50191
 En-DIIS/RFO-DIIS IScMMF=        0 using points:     3    2
 RFO step:  Lambda=-5.95241797D-08.
 DidBck=F Rises=F RFO-DIIS coefs:    1.06747   -0.06747
 Iteration  1 RMS(Cart)=  0.00008837 RMS(Int)=  0.00000000
 Iteration  2 RMS(Cart)=  0.00000000 RMS(Int)=  0.00000000
 ClnCor:  largest displacement from symmetrization is 4.53D-12 for atom    12.
 Variable       Old X    -DE/DX   Delta X   Delta X   Delta X     New X
                                 (Linear)    (Quad)   (Total)
    R1        2.64619  -0.00008  -0.00016   0.00000  -0.00016   2.64603
    R2        2.64619  -0.00008  -0.00016   0.00000  -0.00016   2.64603
    R3        2.05371  -0.00002  -0.00005   0.00000  -0.00005   2.05366
    R4        2.64619  -0.00008  -0.00016   0.00000  -0.00016   2.64603
    R5        2.05371  -0.00002  -0.00005   0.00000  -0.00005   2.05366
    R6        2.64619  -0.00008  -0.00016   0.00000  -0.00016   2.64603
    R7        2.05371  -0.00002  -0.00005   0.00000  -0.00005   2.05366
    R8        2.64619  -0.00008  -0.00016   0.00000  -0.00016   2.64603
    R9        2.05371  -0.00002  -0.00005   0.00000  -0.00005   2.05366
   R10        2.64619  -0.00008  -0.00016   0.00000  -0.00016   2.64603
   R11        2.05371  -0.00002  -0.00005   0.00000  -0.00005   2.05366
   R12        2.05371  -0.00002  -0.00005   0.00000  -0.00005   2.05366
    A1        2.09440   0.00000   0.00000  -0.00001  -0.00001   2.09439
    A2        2.09439   0.00000   0.00000   0.00000   0.00000   2.09440
    A3        2.09439   0.00000   0.00000   0.00000   0.00000   2.09440
    A4        2.09439   0.00000   0.00000   0.00001   0.00001   2.09440
    A5        2.09440   0.00000   0.00000  -0.00001  -0.00001   2.09439
    A6        2.09440   0.00000   0.00000   0.00000   0.00000   2.09439
    A7        2.09440   0.00000   0.00000   0.00000   0.00000   2.09439
    A8        2.09440   0.00000   0.00000   0.00000   0.00000   2.09440
    A9        2.09439   0.00000   0.00000   0.00000   0.00000   2.09440
   A10        2.09440   0.00000   0.00000  -0.00001  -0.00001   2.09439
   A11        2.09439   0.00000   0.00000   0.00000   0.00000   2.09440
   A12        2.09439   0.00000   0.00000   0.00000   0.00000   2.09440
   A13        2.09439   0.00000   0.00000   0.00001   0.00001   2.09440
   A14        2.09440   0.00000   0.00000  -0.00001  -0.00001   2.09439
   A15        2.09440   0.00000   0.00000   0.00000   0.00000   2.09439
   A16        2.09440   0.00000   0.00000   0.00000   0.00000   2.09439
   A17        2.09439   0.00000   0.00000   0.00000   0.00000   2.09440
   A18        2.09440   0.00000   0.00000   0.00000   0.00000   2.09440
    D1        0.00000   0.00000   0.00000   0.00000   0.00000   0.00000
    D2        3.14159   0.00000   0.00000   0.00000   0.00000   3.14159
    D3        3.14159   0.00000   0.00000   0.00000   0.00000   3.14159
    D4        0.00000   0.00000   0.00000   0.00000   0.00000   0.00000
    D5        0.00000   0.00000   0.00000   0.00000   0.00000   0.00000
    D6        3.14159   0.00000   0.00000   0.00000   0.00000   3.14159
    D7        3.14159   0.00000   0.00000   0.00000   0.00000   3.14159
    D8        0.00000   0.00000   0.00000   0.00000   0.00000   0.00000
    D9        0.00000   0.00000   0.00000   0.00000   0.00000   0.00000
   D10        3.14159   0.00000   0.00000   0.00000   0.00000   3.14159
   D11        3.14159   0.00000   0.00000   0.00000   0.00000   3.14159
   D12        0.00000   0.00000   0.00000   0.00000   0.00000   0.00000
   D13        0.00000   0.00000   0.00000   0.00000   0.00000   0.00000
   D14        3.14159   0.00000   0.00000   0.00000   0.00000   3.14159
   D15        3.14159   0.00000   0.00000   0.00000   0.00000   3.14159
   D16        0.00000   0.00000   0.00000   0.00000   0.00000   0.00000
   D17        0.00000   0.00000   0.00000   0.00000   0.00000   0.00000
   D18        3.14159   0.00000   0.00000   0.00000   0.00000   3.14159
   D19        3.14159   0.00000   0.00000   0.00000   0.00000   3.14159
   D20        0.00000   0.00000   0.00000   0.00000   0.00000   0.00000
   D21        0.00000   0.00000   0.00000   0.00000   0.00000   0.00000
   D22        3.14159   0.00000   0.00000   0.00000   0.00000   3.14159
   D23        3.14159   0.00000   0.00000   0.00000   0.00000   3.14159
   D24        0.00000   0.00000   0.00000   0.00000   0.00000   0.00000
         Item               Value     Threshold  Converged?
 Maximum Force            0.000082     0.000002     NO 
 RMS     Force            0.000028     0.000001     NO 
 Maximum Displacement     0.000220     0.000006     NO 
 RMS     Displacement     0.000088     0.000004     NO 
 Predicted change in Energy=-4.228847D-08
 GradGradGradGradGradGradGradGradGradGradGradGradGradGradGradGradGradGrad

                          Input orientation:                          
 ---------------------------------------------------------------------
 Center     Atomic      Atomic             Coordinates (Angstroms)
 Number     Number       Type             X           Y           Z
 ---------------------------------------------------------------------
      1          6           0       -1.212625    0.700108    0.000000
      2          6           0        0.000000    1.400215    0.000000
      3          6           0        1.212625    0.700109    0.000000
      4          6           0        1.212625   -0.700108    0.000000
      5          6           0        0.000000   -1.400215    0.000000
      6          6           0       -1.212625   -0.700109    0.000000
      7          1           0       -2.153778    1.243484    0.000000
      8          1           0       -0.000001    2.486965    0.000000
      9          1           0        2.153779    1.243483    0.000000
     10          1           0        2.153778   -1.243484    0.000000
     11          1           0        0.000001   -2.486965    0.000000
     12          1           0       -2.153779   -1.243483    0.000000
 ---------------------------------------------------------------------
                    Distance matrix (angstroms):
                    1          2          3          4          5
     1  C    0.000000
     2  C    1.400217   0.000000
     3  C    2.425250   1.400218   0.000000
     4  C    2.800436   2.425246   1.400217   0.000000
     5  C    2.425246   2.800430   2.425246   1.400217   0.000000
     6  C    1.400217   2.425246   2.800437   2.425250   1.400218
     7  H    1.086750   2.159473   3.409975   3.887186   3.409971
     8  H    2.159471   1.086750   2.159472   3.409970   3.887180
     9  H    3.409975   2.159474   1.086750   2.159472   3.409971
    10  H    3.887186   3.409971   2.159472   1.086750   2.159473
    11  H    3.409970   3.887180   3.409970   2.159471   1.086750
    12  H    2.159472   3.409971   3.887187   3.409975   2.159474
                    6          7          8          9         10
     6  C    0.000000
     7  H    2.159472   0.000000
     8  H    3.409970   2.486966   0.000000
     9  H    3.887187   4.307556   2.486969   0.000000
    10  H    3.409975   4.973937   4.307553   2.486967   0.000000
    11  H    2.159472   4.307553   4.973930   4.307552   2.486966
    12  H    1.086750   2.486967   4.307552   4.973937   4.307556
                   11         12
    11  H    0.000000
    12  H    2.486969   0.000000
 Stoichiometry    C6H6
 Framework group  C2H[SGH(C6H6)]
 Deg. of freedom    11
 Full point group                 C2H     NOp   4
 Largest Abelian subgroup         C2H     NOp   4
 Largest concise Abelian subgroup C2      NOp   2
                         Standard orientation:                         
 ---------------------------------------------------------------------
 Center     Atomic      Atomic             Coordinates (Angstroms)
 Number     Number       Type             X           Y           Z
 ---------------------------------------------------------------------
      1          6           0       -1.212625    0.700108    0.000000
      2          6           0       -0.000001    1.400215    0.000000
      3          6           0        1.212625    0.700109    0.000000
      4          6           0        1.212625   -0.700108    0.000000
      5          6           0        0.000001   -1.400215    0.000000
      6          6           0       -1.212625   -0.700109    0.000000
      7          1           0       -2.153778    1.243483    0.000000
      8          1           0       -0.000002    2.486965    0.000000
      9          1           0        2.153778    1.243484    0.000000
     10          1           0        2.153778   -1.243483    0.000000
     11          1           0        0.000002   -2.486965    0.000000
     12          1           0       -2.153778   -1.243484    0.000000
 ---------------------------------------------------------------------
 Rotational constants (GHZ):      5.6604841      5.6604627      2.8302367
 Standard basis: 6-311++G(d,p) (5D, 7F)
 There are    69 symmetry adapted cartesian basis functions of AG  symmetry.
 There are    21 symmetry adapted cartesian basis functions of BG  symmetry.
 There are    21 symmetry adapted cartesian basis functions of AU  symmetry.
 There are    69 symmetry adapted cartesian basis functions of BU  symmetry.
 There are    66 symmetry adapted basis functions of AG  symmetry.
 There are    21 symmetry adapted basis functions of BG  symmetry.
 There are    21 symmetry adapted basis functions of AU  symmetry.
 There are    66 symmetry adapted basis functions of BU  symmetry.
   174 basis functions,   270 primitive gaussians,   180 cartesian basis functions
    21 alpha electrons       21 beta electrons
       nuclear repulsion energy       202.7502494508 Hartrees.
 NAtoms=   12 NActive=   12 NUniq=    6 SFac= 4.00D+00 NAtFMM=   60 NAOKFM=F Big=F
 Integral buffers will be    262144 words long.
 Raffenetti 1 integral format.
 Two-electron integral symmetry is turned on.
 One-electron integrals computed using PRISM.
 NBasis=   174 RedAO= T EigKep=  1.11D-06  NBF=    66    21    21    66
 NBsUse=   174 1.00D-06 EigRej= -1.00D+00 NBFU=    66    21    21    66
 Initial guess from the checkpoint file:  "E:\- 5 Doutorado\Projetos\0 - aromaticidade roberta\cálculos\Aromaticity-test-set - mine\C6H6\opt\2-optfreq\gxx.chk"
 B after Tr=     0.000000    0.000000    0.000000
         Rot=    0.866026    0.000000    0.000000   -0.499999 Ang= -60.00 deg.
 Initial guess orbital symmetries:
       Occupied  (AG) (BU) (BU) (AG) (AG) (BU) (AG) (BU) (BU) (AG)
                 (AG) (AG) (BU) (BU) (BU) (BU) (AU) (AG) (AG) (BG)
                 (BG)
[...]
     3   6     0.03   0.01   0.00     0.03   0.02   0.00    -0.03  -0.02   0.00
     4   6    -0.02   0.01   0.00     0.04  -0.03   0.00    -0.03   0.02   0.00
     5   6     0.00   0.05   0.00     0.00  -0.01   0.00     0.00   0.04   0.00
     6   6     0.03   0.01   0.00     0.03   0.02   0.00     0.03   0.02   0.00
     7   1     0.18  -0.10   0.00    -0.46   0.27   0.00    -0.35   0.20   0.00
     8   1     0.00  -0.57   0.00     0.00   0.09   0.00     0.00   0.41   0.00
     9   1    -0.31  -0.18   0.00    -0.39  -0.23   0.00     0.35   0.20   0.00
    10   1     0.18  -0.10   0.00    -0.46   0.27   0.00     0.35  -0.20   0.00
    11   1     0.00  -0.57   0.00     0.00   0.09   0.00     0.00  -0.41   0.00
    12   1    -0.31  -0.18   0.00    -0.39  -0.23   0.00    -0.35  -0.20   0.00

 -------------------
 - Thermochemistry -
 -------------------
 Temperature   298.150 Kelvin.  Pressure   1.00000 Atm.
 Atom     1 has atomic number  6 and mass  12.00000
 Atom     2 has atomic number  6 and mass  12.00000
 Atom     3 has atomic number  6 and mass  12.00000
 Atom     4 has atomic number  6 and mass  12.00000
 Atom     5 has atomic number  6 and mass  12.00000
 Atom     6 has atomic number  6 and mass  12.00000
 Atom     7 has atomic number  1 and mass   1.00783
 Atom     8 has atomic number  1 and mass   1.00783
 Atom     9 has atomic number  1 and mass   1.00783
 Atom    10 has atomic number  1 and mass   1.00783
 Atom    11 has atomic number  1 and mass   1.00783
 Atom    12 has atomic number  1 and mass   1.00783
 Molecular mass:    78.04695 amu.
 Principal axes and moments of inertia in atomic units:
                           1         2         3
     Eigenvalues --   318.83184 318.83332 637.66515
           X            0.98696   0.16095   0.00000
           Y           -0.16095   0.98696   0.00000
           Z            0.00000   0.00000   1.00000
 This molecule is an asymmetric top.
 Rotational symmetry number  2.
 Rotational temperatures (Kelvin)      0.27166     0.27166     0.13583
 Rotational constants (GHZ):           5.66048     5.66045     2.83023
    1 imaginary frequencies ignored.
 Zero-point vibrational energy     255067.7 (Joules/Mol)
                                   60.96265 (Kcal/Mol)
 Warning -- explicit consideration of   4 degrees of freedom as
           vibrations may cause significant error
 Vibrational temperatures:    472.46   472.46   875.98   875.98   948.94
          (Kelvin)           1149.96  1149.96  1152.26  1152.26  1199.99
                             1445.29  1451.56  1524.71  1524.71  1687.54
                             1723.91  1723.91  1967.52  2082.66  2165.57
                             2165.58  2355.03  2355.03  4590.77  4610.76
                             4610.76  4635.10  4635.11  4649.37
 
 Zero-point correction=                           0.097150 (Hartree/Particle)
 Thermal correction to Energy=                    0.101790
 Thermal correction to Enthalpy=                  0.102734
 Thermal correction to Gibbs Free Energy=         0.070149
 Sum of electronic and zero-point Energies=           -231.487107
 Sum of electronic and thermal Energies=              -231.482468
 Sum of electronic and thermal Enthalpies=            -231.481523
 Sum of electronic and thermal Free Energies=         -231.514108
 
                     E (Thermal)             CV                S
                      KCal/Mol        Cal/Mol-Kelvin    Cal/Mol-Kelvin
 Total                   63.874             17.789             68.581
 Electronic               0.000              0.000              0.000
 Translational            0.889              2.981             38.979
 Rotational               0.889              2.981             24.298
 Vibrational             62.097             11.827              5.304
 Vibration     1          0.712              1.619              1.268
 Vibration     2          0.712              1.619              1.268
 Vibration     3          0.968              1.013              0.435
 Vibration     4          0.968              1.013              0.435
                       Q            Log10(Q)             Ln(Q)
 Total Bot       0.541580D-32        -32.266337        -74.295987
 Total V=0       0.262750D+13         12.419542         28.597053
 Vib (Bot)       0.438529D-44        -44.358002       -102.138073
 Vib (Bot)    1  0.569569D+00         -0.244454         -0.562876
 Vib (Bot)    2  0.569567D+00         -0.244455         -0.562879
 Vib (Bot)    3  0.243023D+00         -0.614352         -1.414597
 Vib (Bot)    4  0.243023D+00         -0.614352         -1.414598
 Vib (V=0)       0.212754D+01          0.327878          0.754967
 Vib (V=0)    1  0.125790D+01          0.099645          0.229442
 Vib (V=0)    2  0.125790D+01          0.099645          0.229440
 Vib (V=0)    3  0.105593D+01          0.023636          0.054424
 Vib (V=0)    4  0.105593D+01          0.023636          0.054424
 Electronic      0.100000D+01          0.000000          0.000000
 Translational   0.271012D+08          7.432989         17.115090
 Rotational      0.455696D+05          4.658675         10.726997
 ***** Axes restored to original set *****
 -------------------------------------------------------------------
 Center     Atomic                   Forces (Hartrees/Bohr)
 Number     Number              X              Y              Z
 -------------------------------------------------------------------
      1        6          -0.000000055   -0.000000293    0.000000000
      2        6           0.000000428    0.000001825    0.000000000
      3        6           0.000000148    0.000000169    0.000000000
      4        6           0.000000055    0.000000293    0.000000000
      5        6          -0.000000428   -0.000001825    0.000000000
      6        6          -0.000000148   -0.000000169    0.000000000
      7        1          -0.000000031    0.000000013    0.000000000
      8        1          -0.000000006   -0.000000010    0.000000000
      9        1          -0.000000019    0.000000026    0.000000000
     10        1           0.000000031   -0.000000013    0.000000000
     11        1           0.000000006    0.000000010    0.000000000
     12        1           0.000000019   -0.000000026    0.000000000
 -------------------------------------------------------------------
 Cartesian Forces:  Max     0.000001825 RMS     0.000000451
 FormGI is forming the generalized inverse of G from B-inverse, IUseBI=4.

 GradGradGradGradGradGradGradGradGradGradGradGradGradGradGradGradGradGrad
 Berny optimization.
 Internal  Forces:  Max     0.000000865 RMS     0.000000349
 Search for a local minimum.
 Step number   1 out of a maximum of    2
 All quantities printed in internal units (Hartrees-Bohrs-Radians)
 Second derivative matrix not updated -- analytic derivatives used.
 ITU=  0
     Eigenvalues ---   -0.05320   0.01169   0.01169   0.01766   0.01766
     Eigenvalues ---    0.01851   0.02039   0.02039   0.02421   0.10739
     Eigenvalues ---    0.11019   0.11019   0.11890   0.12534   0.12534
     Eigenvalues ---    0.18926   0.19054   0.19054   0.32679   0.36235
     Eigenvalues ---    0.36235   0.36452   0.36452   0.36477   0.36570
     Eigenvalues ---    0.41021   0.41021   0.47075   0.47075   0.50468
 Eigenvalue     1 is  -5.32D-02 should be greater than     0.000000 Eigenvector:
                          D21       D9        D17       D1        D5
   1                   -0.33487   0.33487   0.33487  -0.33487   0.33487
                          D13       D20       D4        D24       D8
   1                   -0.33487  -0.21855   0.21855   0.21855  -0.21855
 Angle between quadratic step and forces=  27.62 degrees.
 Linear search not attempted -- first point.
 Iteration  1 RMS(Cart)=  0.00000201 RMS(Int)=  0.00000000
 Iteration  2 RMS(Cart)=  0.00000000 RMS(Int)=  0.00000000
 ClnCor:  largest displacement from symmetrization is 1.59D-13 for atom    12.
 Variable       Old X    -DE/DX   Delta X   Delta X   Delta X     New X
                                 (Linear)    (Quad)   (Total)
    R1        2.64603   0.00000   0.00000   0.00000   0.00000   2.64603
    R2        2.64603   0.00000   0.00000   0.00000   0.00000   2.64603
    R3        2.05366   0.00000   0.00000   0.00000   0.00000   2.05366
    R4        2.64603   0.00000   0.00000   0.00000   0.00000   2.64603
    R5        2.05366   0.00000   0.00000   0.00000   0.00000   2.05366
    R6        2.64603   0.00000   0.00000   0.00000   0.00000   2.64603
    R7        2.05366   0.00000   0.00000   0.00000   0.00000   2.05366
    R8        2.64603   0.00000   0.00000   0.00000   0.00000   2.64603
    R9        2.05366   0.00000   0.00000   0.00000   0.00000   2.05366
   R10        2.64603   0.00000   0.00000   0.00000   0.00000   2.64603
   R11        2.05366   0.00000   0.00000   0.00000   0.00000   2.05366
   R12        2.05366   0.00000   0.00000   0.00000   0.00000   2.05366
    A1        2.09439   0.00000   0.00000   0.00000   0.00000   2.09440
    A2        2.09440   0.00000   0.00000   0.00000   0.00000   2.09440
    A3        2.09440   0.00000   0.00000   0.00000   0.00000   2.09440
    A4        2.09440   0.00000   0.00000   0.00000   0.00000   2.09440
    A5        2.09439   0.00000   0.00000   0.00000   0.00000   2.09440
    A6        2.09439   0.00000   0.00000   0.00000   0.00000   2.09440
    A7        2.09439   0.00000   0.00000   0.00000   0.00000   2.09440
    A8        2.09440   0.00000   0.00000   0.00000   0.00000   2.09440
    A9        2.09440   0.00000   0.00000   0.00000   0.00000   2.09440
   A10        2.09439   0.00000   0.00000   0.00000   0.00000   2.09440
   A11        2.09440   0.00000   0.00000   0.00000   0.00000   2.09440
   A12        2.09440   0.00000   0.00000   0.00000   0.00000   2.09440
   A13        2.09440   0.00000   0.00000   0.00000   0.00000   2.09440
   A14        2.09439   0.00000   0.00000   0.00000   0.00000   2.09440
   A15        2.09439   0.00000   0.00000   0.00000   0.00000   2.09440
   A16        2.09439   0.00000   0.00000   0.00000   0.00000   2.09440
   A17        2.09440   0.00000   0.00000   0.00000   0.00000   2.09440
   A18        2.09440   0.00000   0.00000   0.00000   0.00000   2.09440
    D1        0.00000   0.00000   0.00000   0.00000   0.00000   0.00000
    D2        3.14159   0.00000   0.00000   0.00000   0.00000   3.14159
    D3        3.14159   0.00000   0.00000   0.00000   0.00000   3.14159
    D4        0.00000   0.00000   0.00000   0.00000   0.00000   0.00000
    D5        0.00000   0.00000   0.00000   0.00000   0.00000   0.00000
    D6        3.14159   0.00000   0.00000   0.00000   0.00000   3.14159
    D7        3.14159   0.00000   0.00000   0.00000   0.00000   3.14159
    D8        0.00000   0.00000   0.00000   0.00000   0.00000   0.00000
    D9        0.00000   0.00000   0.00000   0.00000   0.00000   0.00000
   D10        3.14159   0.00000   0.00000   0.00000   0.00000   3.14159
   D11        3.14159   0.00000   0.00000   0.00000   0.00000   3.14159
   D12        0.00000   0.00000   0.00000   0.00000   0.00000   0.00000
   D13        0.00000   0.00000   0.00000   0.00000   0.00000   0.00000
   D14        3.14159   0.00000   0.00000   0.00000   0.00000   3.14159
   D15        3.14159   0.00000   0.00000   0.00000   0.00000   3.14159
   D16        0.00000   0.00000   0.00000   0.00000   0.00000   0.00000
   D17        0.00000   0.00000   0.00000   0.00000   0.00000   0.00000
   D18        3.14159   0.00000   0.00000   0.00000   0.00000   3.14159
   D19        3.14159   0.00000   0.00000   0.00000   0.00000   3.14159
   D20        0.00000   0.00000   0.00000   0.00000   0.00000   0.00000
   D21        0.00000   0.00000   0.00000   0.00000   0.00000   0.00000
   D22        3.14159   0.00000   0.00000   0.00000   0.00000   3.14159
   D23        3.14159   0.00000   0.00000   0.00000   0.00000   3.14159
   D24        0.00000   0.00000   0.00000   0.00000   0.00000   0.00000
         Item               Value     Threshold  Converged?
 Maximum Force            0.000001     0.000002     YES
 RMS     Force            0.000000     0.000001     YES
 Maximum Displacement     0.000007     0.000006     NO 
 RMS     Displacement     0.000002     0.000004     YES
 Predicted change in Energy=-1.217538D-11
 GradGradGradGradGradGradGradGradGradGradGradGradGradGradGradGradGradGrad

 1|1|UNPC-MATHEUSMáXIMO|Freq|RMP2-FC|6-311++G(d,p)|C6H6|MATHEUS MáXIMO|
 15-Feb-2025|0||#N Geom=AllCheck Guess=TCheck SCRF=Check GenChk RMP2(FC
 )/6-311++G(d,p) Freq||14-H||0,1|C,-1.2126265055,0.7001095645,0.|C,-0.0
 000004979,1.400215324,0.|C,1.212625608,0.7001085205,0.|C,1.2126265055,
 -0.7001095645,0.|C,0.0000004979,-1.400215324,0.|C,-1.212625608,-0.7001
 085205,0.|H,-2.1537787816,1.2434861329,0.|H,0.0000003058,2.4869656739,
 0.|H,2.1537777449,1.2434855204,0.|H,2.1537787816,-1.2434861329,0.|H,-0
 .0000003058,-2.4869656739,0.|H,-2.1537777449,-1.2434855204,0.||Version
 =IA32W-G09RevD.01|State=1-AG|HF=-230.7551457|MP2=-231.5842575|RMSD=1.2
 48e-009|RMSF=4.505e-007|ZeroPoint=0.0971502|Thermal=0.1017899|Dipole=0
 .,0.,0.|DipoleDeriv=0.0500234,-0.0597157,0.,-0.0597142,-0.0189292,0.,0
 .,0.,-0.1436028,-0.0534073,-0.0000003,0.,0.0000003,0.0845008,0.,0.,0.,
 -0.1436035,0.0500233,0.0597164,0.,0.0597142,-0.0189293,0.,0.,0.,-0.143
 603,0.0500234,-0.0597157,0.,-0.0597142,-0.0189292,0.,0.,0.,-0.1436028,
 -0.0534073,-0.0000003,0.,0.0000004,0.0845008,0.,0.,0.,-0.1436035,0.050
 0233,0.0597164,0.,0.0597141,-0.0189293,0.,0.,0.,-0.143603,-0.0553999,0
 .069029,0.,0.0690293,0.0243074,0.,0.,0.,0.1436032,0.0641608,-0.0000002
 ,0.,0.,-0.0952567,0.,0.,0.,0.1436029,-0.0554003,-0.0690292,0.,-0.06902
 95,0.024307,0.,0.,0.,0.1436032,-0.0553999,0.069029,0.,0.0690293,0.0243
 074,0.,0.,0.,0.1436032,0.0641608,-0.0000002,0.,0.,-0.0952567,0.,0.,0.,
 0.1436029,-0.0554003,-0.0690292,0.,-0.0690295,0.024307,0.,0.,0.,0.1436
 032|Polar=77.7341211,-0.0000148,77.7339993,0.,0.,41.5493643|PG=C02H [S
 GH(C6H6)]|NImag=1||0.72734166,-0.02625722,0.69702258,0.,0.,-0.04553034
 ,-0.29596615,-0.07760858,0.,0.68186426,-0.12615568,-0.17832106,0.,0.00
 000089,0.74249907,0.,0.,0.09519502,0.,0.,-0.04553070,-0.04947520,-0.01
 400338,0.,-0.29596498,0.12615514,0.,0.72734033,0.01400333,0.04827336,0
 .,0.07760797,-0.17832103,0.,0.02625746,0.69702273,0.,0.,-0.11821330,0.
 ,0.,0.09519482,0.,0.,-0.04553014,-0.01331616,-0.01990822,0.,0.02383608
 ,0.02832324,0.,-0.11949996,0.02427361,0.,0.72734166,-0.01990822,-0.036
 30411,0.,0.05632981,-0.02503840,0.,-0.02427320,-0.35478694,0.,-0.02625
 722,0.69702258,0.,0.,0.10687273,0.,0.,-0.11821344,0.,0.,0.09519459,0.,
 0.,-0.04553034,0.02383608,0.05632980,0.,-0.04779818,0.,0.,0.02383609,-
 0.05632988,0.,-0.29596616,-0.07760859,0.,0.68186427,0.02832324,-0.0250
 3839,0.,0.,-0.00182240,0.,-0.02832337,-0.02503848,0.,-0.12615568,-0.17
 832106,0.,0.00000089,0.74249907,0.,0.,-0.11821345,0.,0.,0.10687329,0.,
 0.,-0.11821338,0.,0.,0.09519503,0.,0.,-0.04553072,-0.11949996,-0.02427
 319,0.,0.02383609,-0.02832338,0.,-0.01331629,0.01990828,0.,-0.04947519
 ,-0.01400338,0.,-0.29596499,0.12615514,0.,0.72734033,0.02427361,-0.354
 78695,0.,-0.05632988,-0.02503847,0.,0.01990828,-0.03630417,0.,0.014003
 33,0.04827335,0.,0.07760798,-0.17832103,0.,0.02625745,0.69702273,0.,0.
 ,0.09519460,0.,0.,-0.11821338,0.,0.,0.10687274,0.,0.,-0.11821331,0.,0.
 ,0.09519484,0.,0.,-0.04553016,-0.27307763,0.12433891,0.,-0.01687332,0.
 01717224,0.,-0.00334496,-0.00405644,0.,0.00028975,-0.00127068,0.,0.001
 78390,-0.00042352,0.,0.00339571,-0.00422097,0.,0.28688592,0.12433897,-
 0.12950452,0.,-0.01592326,0.01087305,0.,-0.00338468,-0.00080262,0.,-0.
 00127067,-0.00117749,0.,-0.00109530,-0.00593152,0.,0.02887448,-0.00939
 586,0.,-0.13238029,0.13402750,0.,0.,-0.01064082,0.,0.,-0.01575627,0.,0
 .,0.01889765,0.,0.,-0.01094735,0.,0.,0.01889763,0.,0.,-0.01575620,0.,0
 .,0.01964702,0.00447720,-0.02825015,0.,-0.05771714,-0.00000022,0.,0.00
 447718,0.02825014,0.,-0.00466033,0.00262531,0.,-0.00191113,0.,0.,-0.00
 466035,-0.00262531,0.,0.00099651,0.00046869,0.,0.05759772,0.00484541,-
 0.01047760,0.,-0.00000022,-0.34486413,0.,-0.00484541,-0.01047763,0.,0.
 00329707,0.00051269,0.,0.,0.00102340,0.,-0.00329708,0.00051270,0.,-0.0
 0032756,0.00091504,0.,0.00000023,0.36331534,0.,0.,-0.01575619,0.,0.,-0
 .01064090,0.,0.,-0.01575622,0.,0.,0.01889763,0.,0.,-0.01094741,0.,0.,0
 .01889763,0.,0.,-0.00131080,0.,0.,0.01964709,-0.00334497,0.00405644,0.
 ,-0.01687334,-0.01717223,0.,-0.27307733,-0.12433888,0.,0.00339571,0.00
 422097,0.,0.00178391,0.00042352,0.,0.00028975,0.00127069,0.,-0.0009713
 7,-0.00095041,0.,0.00099651,0.00032757,0.,0.28688565,0.00338468,-0.000
 80262,0.,0.01592328,0.01087303,0.,-0.12433892,-0.12950458,0.,-0.028874
 51,-0.00939590,0.,0.00109529,-0.00593155,0.,0.00127067,-0.00117748,0.,
 0.00095041,0.00045526,0.,-0.00046868,0.00091504,0.,0.13238025,0.134027
 64,0.,0.,0.01889765,0.,0.,-0.01575629,0.,0.,-0.01064083,0.,0.,-0.01575
 618,0.,0.,0.01889762,0.,0.,-0.01094736,0.,0.,-0.00071801,0.,0.,-0.0013
 1080,0.,0.,0.01964703,0.00028975,-0.00127068,0.,0.00178390,-0.00042353
 ,0.,0.00339571,-0.00422098,0.,-0.27307763,0.12433891,0.,-0.01687332,0.
 01717224,0.,-0.00334496,-0.00405644,0.,-0.00005741,0.00015244,0.,0.000
 09860,-0.00033266,0.,0.00087428,0.00039814,0.,0.28688592,-0.00127067,-
 0.00117749,0.,-0.00109530,-0.00593152,0.,0.02887448,-0.00939586,0.,0.1
 2433897,-0.12950452,0.,-0.01592326,0.01087305,0.,-0.00338468,-0.000802
 61,0.,0.00015244,0.00011862,0.,0.00156817,-0.00061472,0.,-0.00039814,0
 .00103726,0.,-0.13238029,0.13402750,0.,0.,-0.01094735,0.,0.,0.01889763
 ,0.,0.,-0.01575620,0.,0.,-0.01064082,0.,0.,-0.01575627,0.,0.,0.0188976
 5,0.,0.,-0.00028407,0.,0.,-0.00071800,0.,0.,-0.00131078,0.,0.,0.019647
 02,-0.00466033,0.00262531,0.,-0.00191113,0.,0.,-0.00466035,-0.00262531
 ,0.,0.00447720,-0.02825015,0.,-0.05771714,-0.00000022,0.,0.00447718,0.
 02825014,0.,0.00009860,0.00156817,0.,0.00020663,0.,0.,0.00009860,-0.00
 156817,0.,0.00099651,0.00046869,0.,0.05759772,0.00329707,0.00051270,0.
 ,0.,0.00102340,0.,-0.00329708,0.00051270,0.,0.00484541,-0.01047760,0.,
 -0.00000022,-0.34486413,0.,-0.00484541,-0.01047763,0.,-0.00033266,-0.0
 0061472,0.,0.,-0.00014542,0.,0.00033266,-0.00061472,0.,-0.00032756,0.0
 0091504,0.,0.00000023,0.36331534,0.,0.,0.01889763,0.,0.,-0.01094741,0.
 ,0.,0.01889763,0.,0.,-0.01575619,0.,0.,-0.01064090,0.,0.,-0.01575622,0
 .,0.,-0.00071800,0.,0.,-0.00028404,0.,0.,-0.00071800,0.,0.,-0.00131080
 ,0.,0.,0.01964709,0.00339571,0.00422097,0.,0.00178390,0.00042352,0.,0.
 00028976,0.00127068,0.,-0.00334497,0.00405644,0.,-0.01687333,-0.017172
 23,0.,-0.27307733,-0.12433888,0.,0.00087428,-0.00039814,0.,0.00009860,
 0.00033266,0.,-0.00005741,-0.00015244,0.,-0.00097137,-0.00095041,0.,0.
 00099651,0.00032757,0.,0.28688565,-0.02887451,-0.00939590,0.,0.0010952
 9,-0.00593155,0.,0.00127067,-0.00117749,0.,0.00338468,-0.00080262,0.,0
 .01592328,0.01087303,0.,-0.12433892,-0.12950458,0.,0.00039814,0.001037
 26,0.,-0.00156817,-0.00061472,0.,-0.00015244,0.00011861,0.,0.00095041,
 0.00045526,0.,-0.00046868,0.00091504,0.,0.13238025,0.13402764,0.,0.,-0
 .01575618,0.,0.,0.01889762,0.,0.,-0.01094736,0.,0.,0.01889765,0.,0.,-0
 .01575629,0.,0.,-0.01064083,0.,0.,-0.00131078,0.,0.,-0.00071800,0.,0.,
 -0.00028406,0.,0.,-0.00071801,0.,0.,-0.00131080,0.,0.,0.01964703||0.00
 000006,0.00000029,0.,-0.00000043,-0.00000182,0.,-0.00000015,-0.0000001
 7,0.,-0.00000006,-0.00000029,0.,0.00000043,0.00000182,0.,0.00000015,0.
 00000017,0.,0.00000003,-0.00000001,0.,0.,0.00000001,0.,0.00000002,-0.0
 0000003,0.,-0.00000003,0.00000001,0.,0.,-0.00000001,0.,-0.00000002,0.0
 0000003,0.|||@


 HE WHO LOVES TO READ, AND KNOWS HOW TO REFLECT,
 HAS LAID BY A PERPETUAL FEAST FOR HIS OLD AGE.
 -- UNCLE ESEK, "SCRIBNER'S MONTHLY", SEPT. 1880
 Job cpu time:       0 days  0 hours 53 minutes 54.0 seconds.
 File lengths (MBytes):  RWF=   4142 Int=      0 D2E=      0 Chk=      4 Scr=      1
 Normal termination of Gaussian 09 at Sat Feb 15 14:10:03 2025.
