14-H                                                                    
Freq      RMP2-FC                                                     6-311++G(d,p)       
Number of atoms                            I               12
Info1-9                                    I   N=           9
          22          21        1002           0           0         100
           6           2           1
Charge                                     I                0
Multiplicity                               I                1
Number of electrons                        I               42
Number of alpha electrons                  I               21
Number of beta electrons                   I               21
Number of basis functions                  I              174
Number of independent functions            I              174
Number of point charges in /Mol/           I                0
Number of translation vectors              I                0
Atomic numbers                             I   N=          12
           6           6           6           6           6           6
           1           1           1           1           1           1
Nuclear charges                            R   N=          12
  6.00000000E+00  6.00000000E+00  6.00000000E+00  6.00000000E+00  6.00000000E+00
  6.00000000E+00  1.00000000E+00  1.00000000E+00  1.00000000E+00  1.00000000E+00
  1.00000000E+00  1.00000000E+00
Current cartesian coordinates              R   N=          36
 -2.29153200E+00  1.32301534E+00 -2.95812201E-12 -9.40906880E-07  2.64602349E+00
 -2.95787137E-12  2.29153030E+00  1.32301337E+00 -2.95756819E-12  2.29153200E+00
 -1.32301534E+00 -2.95751565E-12  9.40906964E-07 -2.64602349E+00 -2.95776628E-12
 -2.29153030E+00 -1.32301337E+00 -2.95806946E-12 -4.07005205E+00  2.34984824E+00
 -2.95835731E-12  5.77889660E-07  4.69968403E+00 -2.95791214E-12  4.07005009E+00
  2.34984708E+00 -2.95737366E-12  4.07005205E+00 -2.34984824E+00 -2.95728034E-12
 -5.77889577E-07 -4.69968403E+00 -2.95772551E-12 -4.07005009E+00 -2.34984708E+00
 -2.95826399E-12
Force Field                                I                0
Int Atom Types                             I   N=          12
           0           0           0           0           0           0
           0           0           0           0           0           0
MM charges                                 R   N=          12
  0.00000000E+00  0.00000000E+00  0.00000000E+00  0.00000000E+00  0.00000000E+00
  0.00000000E+00  0.00000000E+00  0.00000000E+00  0.00000000E+00  0.00000000E+00
  0.00000000E+00  0.00000000E+00
Integer atomic weights                     I   N=          12
          12          12          12          12          12          12
           1           1           1           1           1           1
Real atomic weights                        R   N=          12
  1.20000000E+01  1.20000000E+01  1.20000000E+01  1.20000000E+01  1.20000000E+01
  1.20000000E+01  1.00782504E+00  1.00782504E+00  1.00782504E+00  1.00782504E+00
  1.00782504E+00  1.00782504E+00
Atom fragment info                         I   N=          12
           0           0           0           0           0           0
           0           0           0           0           0           0
Atom residue num                           I   N=          12
           0           0           0           0           0           0
           0           0           0           0           0           0
Nuclear spins                              I   N=          12
           0           0           0           0           0           0
           1           1           1           1           1           1
Nuclear ZEff                               R   N=          12
 -3.60000000E+00 -3.60000000E+00 -3.60000000E+00 -3.60000000E+00 -3.60000000E+00
 -3.60000000E+00 -1.00000000E+00 -1.00000000E+00 -1.00000000E+00 -1.00000000E+00
 -1.00000000E+00 -1.00000000E+00
Nuclear ZNuc                               R   N=          12
  6.00000000E+00  6.00000000E+00  6.00000000E+00  6.00000000E+00  6.00000000E+00
  6.00000000E+00  1.00000000E+00  1.00000000E+00  1.00000000E+00  1.00000000E+00
  1.00000000E+00  1.00000000E+00
Nuclear QMom                               R   N=          12
  0.00000000E+00  0.00000000E+00  0.00000000E+00  0.00000000E+00  0.00000000E+00
  0.00000000E+00  0.00000000E+00  0.00000000E+00  0.00000000E+00  0.00000000E+00
  0.00000000E+00  0.00000000E+00
Nuclear GFac                               R   N=          12
  0.00000000E+00  0.00000000E+00  0.00000000E+00  0.00000000E+00  0.00000000E+00
  0.00000000E+00  2.79284600E+00  2.79284600E+00  2.79284600E+00  2.79284600E+00
  2.79284600E+00  2.79284600E+00
MicOpt                                     I   N=          12
          -1          -1          -1          -1          -1          -1
          -1          -1          -1          -1          -1          -1
Number of contracted shells                I               66
Number of primitive shells                 I              120
Pure/Cartesian d shells                    I                0
Pure/Cartesian f shells                    I                0
Highest angular momentum                   I                2
Largest degree of contraction              I                6
Shell types                                I   N=          66
           0          -1          -1          -1          -1          -2
           0          -1          -1          -1          -1          -2
           0          -1          -1          -1          -1          -2
           0          -1          -1          -1          -1          -2
           0          -1          -1          -1          -1          -2
           0          -1          -1          -1          -1          -2
           0           0           0           0           1           0
           0           0           0           1           0           0
           0           0           1           0           0           0
           0           1           0           0           0           0
           1           0           0           0           0           1
Number of primitives per shell             I   N=          66
           6           3           1           1           1           1
           6           3           1           1           1           1
           6           3           1           1           1           1
           6           3           1           1           1           1
           6           3           1           1           1           1
           6           3           1           1           1           1
           3           1           1           1           1           3
           1           1           1           1           3           1
           1           1           1           3           1           1
           1           1           3           1           1           1
           1           3           1           1           1           1
Shell to atom map                          I   N=          66
           1           1           1           1           1           1
           2           2           2           2           2           2
           3           3           3           3           3           3
           4           4           4           4           4           4
           5           5           5           5           5           5
           6           6           6           6           6           6
           7           7           7           7           7           8
           8           8           8           8           9           9
           9           9           9          10          10          10
          10          10          11          11          11          11
          11          12          12          12          12          12
Primitive exponents                        R   N=         120
  4.56324000E+03  6.82024000E+02  1.54973000E+02  4.44553000E+01  1.30290000E+01
  1.82773000E+00  2.09642000E+01  4.80331000E+00  1.45933000E+00  4.83456000E-01
  1.45585000E-01  4.38000000E-02  6.26000000E-01  4.56324000E+03  6.82024000E+02
  1.54973000E+02  4.44553000E+01  1.30290000E+01  1.82773000E+00  2.09642000E+01
  4.80331000E+00  1.45933000E+00  4.83456000E-01  1.45585000E-01  4.38000000E-02
  6.26000000E-01  4.56324000E+03  6.82024000E+02  1.54973000E+02  4.44553000E+01
  1.30290000E+01  1.82773000E+00  2.09642000E+01  4.80331000E+00  1.45933000E+00
  4.83456000E-01  1.45585000E-01  4.38000000E-02  6.26000000E-01  4.56324000E+03
  6.82024000E+02  1.54973000E+02  4.44553000E+01  1.30290000E+01  1.82773000E+00
  2.09642000E+01  4.80331000E+00  1.45933000E+00  4.83456000E-01  1.45585000E-01
  4.38000000E-02  6.26000000E-01  4.56324000E+03  6.82024000E+02  1.54973000E+02
  4.44553000E+01  1.30290000E+01  1.82773000E+00  2.09642000E+01  4.80331000E+00
  1.45933000E+00  4.83456000E-01  1.45585000E-01  4.38000000E-02  6.26000000E-01
  4.56324000E+03  6.82024000E+02  1.54973000E+02  4.44553000E+01  1.30290000E+01
  1.82773000E+00  2.09642000E+01  4.80331000E+00  1.45933000E+00  4.83456000E-01
  1.45585000E-01  4.38000000E-02  6.26000000E-01  3.38650000E+01  5.09479000E+00
  1.15879000E+00  3.25840000E-01  1.02741000E-01  3.60000000E-02  7.50000000E-01
  3.38650000E+01  5.09479000E+00  1.15879000E+00  3.25840000E-01  1.02741000E-01
  3.60000000E-02  7.50000000E-01  3.38650000E+01  5.09479000E+00  1.15879000E+00
  3.25840000E-01  1.02741000E-01  3.60000000E-02  7.50000000E-01  3.38650000E+01
  5.09479000E+00  1.15879000E+00  3.25840000E-01  1.02741000E-01  3.60000000E-02
  7.50000000E-01  3.38650000E+01  5.09479000E+00  1.15879000E+00  3.25840000E-01
  1.02741000E-01  3.60000000E-02  7.50000000E-01  3.38650000E+01  5.09479000E+00
  1.15879000E+00  3.25840000E-01  1.02741000E-01  3.60000000E-02  7.50000000E-01
Contraction coefficients                   R   N=         120
  1.96665025E-03  1.52306019E-02  7.61269097E-02  2.60801033E-01  6.16462078E-01
  2.21006028E-01  1.14660081E-01  9.19999648E-01 -3.03068213E-03  1.00000000E+00
  1.00000000E+00  1.00000000E+00  1.00000000E+00  1.96665025E-03  1.52306019E-02
  7.61269097E-02  2.60801033E-01  6.16462078E-01  2.21006028E-01  1.14660081E-01
  9.19999648E-01 -3.03068213E-03  1.00000000E+00  1.00000000E+00  1.00000000E+00
  1.00000000E+00  1.96665025E-03  1.52306019E-02  7.61269097E-02  2.60801033E-01
  6.16462078E-01  2.21006028E-01  1.14660081E-01  9.19999648E-01 -3.03068213E-03
  1.00000000E+00  1.00000000E+00  1.00000000E+00  1.00000000E+00  1.96665025E-03
  1.52306019E-02  7.61269097E-02  2.60801033E-01  6.16462078E-01  2.21006028E-01
  1.14660081E-01  9.19999648E-01 -3.03068213E-03  1.00000000E+00  1.00000000E+00
  1.00000000E+00  1.00000000E+00  1.96665025E-03  1.52306019E-02  7.61269097E-02
  2.60801033E-01  6.16462078E-01  2.21006028E-01  1.14660081E-01  9.19999648E-01
 -3.03068213E-03  1.00000000E+00  1.00000000E+00  1.00000000E+00  1.00000000E+00
  1.96665025E-03  1.52306019E-02  7.61269097E-02  2.60801033E-01  6.16462078E-01
  2.21006028E-01  1.14660081E-01  9.19999648E-01 -3.03068213E-03  1.00000000E+00
  1.00000000E+00  1.00000000E+00  1.00000000E+00  2.54938145E-02  1.90373109E-01
  8.52161486E-01  1.00000000E+00  1.00000000E+00  1.00000000E+00  1.00000000E+00
  2.54938145E-02  1.90373109E-01  8.52161486E-01  1.00000000E+00  1.00000000E+00
  1.00000000E+00  1.00000000E+00  2.54938145E-02  1.90373109E-01  8.52161486E-01
  1.00000000E+00  1.00000000E+00  1.00000000E+00  1.00000000E+00  2.54938145E-02
  1.90373109E-01  8.52161486E-01  1.00000000E+00  1.00000000E+00  1.00000000E+00
  1.00000000E+00  2.54938145E-02  1.90373109E-01  8.52161486E-01  1.00000000E+00
  1.00000000E+00  1.00000000E+00  1.00000000E+00  2.54938145E-02  1.90373109E-01
  8.52161486E-01  1.00000000E+00  1.00000000E+00  1.00000000E+00  1.00000000E+00
P(S=P) Contraction coefficients            R   N=         120
  0.00000000E+00  0.00000000E+00  0.00000000E+00  0.00000000E+00  0.00000000E+00
  0.00000000E+00  4.02486927E-02  2.37593957E-01  8.15853851E-01  1.00000000E+00
  1.00000000E+00  1.00000000E+00  0.00000000E+00  0.00000000E+00  0.00000000E+00
  0.00000000E+00  0.00000000E+00  0.00000000E+00  0.00000000E+00  4.02486927E-02
  2.37593957E-01  8.15853851E-01  1.00000000E+00  1.00000000E+00  1.00000000E+00
  0.00000000E+00  0.00000000E+00  0.00000000E+00  0.00000000E+00  0.00000000E+00
  0.00000000E+00  0.00000000E+00  4.02486927E-02  2.37593957E-01  8.15853851E-01
  1.00000000E+00  1.00000000E+00  1.00000000E+00  0.00000000E+00  0.00000000E+00
  0.00000000E+00  0.00000000E+00  0.00000000E+00  0.00000000E+00  0.00000000E+00
  4.02486927E-02  2.37593957E-01  8.15853851E-01  1.00000000E+00  1.00000000E+00
  1.00000000E+00  0.00000000E+00  0.00000000E+00  0.00000000E+00  0.00000000E+00
  0.00000000E+00  0.00000000E+00  0.00000000E+00  4.02486927E-02  2.37593957E-01
  8.15853851E-01  1.00000000E+00  1.00000000E+00  1.00000000E+00  0.00000000E+00
  0.00000000E+00  0.00000000E+00  0.00000000E+00  0.00000000E+00  0.00000000E+00
  0.00000000E+00  4.02486927E-02  2.37593957E-01  8.15853851E-01  1.00000000E+00
  1.00000000E+00  1.00000000E+00  0.00000000E+00  0.00000000E+00  0.00000000E+00
  0.00000000E+00  0.00000000E+00  0.00000000E+00  0.00000000E+00  0.00000000E+00
  0.00000000E+00  0.00000000E+00  0.00000000E+00  0.00000000E+00  0.00000000E+00
  0.00000000E+00  0.00000000E+00  0.00000000E+00  0.00000000E+00  0.00000000E+00
  0.00000000E+00  0.00000000E+00  0.00000000E+00  0.00000000E+00  0.00000000E+00
  0.00000000E+00  0.00000000E+00  0.00000000E+00  0.00000000E+00  0.00000000E+00
  0.00000000E+00  0.00000000E+00  0.00000000E+00  0.00000000E+00  0.00000000E+00
  0.00000000E+00  0.00000000E+00  0.00000000E+00  0.00000000E+00  0.00000000E+00
  0.00000000E+00  0.00000000E+00  0.00000000E+00  0.00000000E+00  0.00000000E+00
Coordinates of each shell                  R   N=         198
 -2.29153115E+00  1.32301681E+00 -1.16751414E-28 -2.29153115E+00  1.32301681E+00
 -1.16751414E-28 -2.29153115E+00  1.32301681E+00 -1.16751414E-28 -2.29153115E+00
  1.32301681E+00 -1.16751414E-28 -2.29153115E+00  1.32301681E+00 -1.16751414E-28
 -2.29153115E+00  1.32301681E+00 -1.16751414E-28  7.55168834E-07  2.64602349E+00
 -1.46370676E-29  7.55168834E-07  2.64602349E+00 -1.46370676E-29  7.55168834E-07
  2.64602349E+00 -1.46370676E-29  7.55168834E-07  2.64602349E+00 -1.46370676E-29
  7.55168834E-07  2.64602349E+00 -1.46370676E-29  7.55168834E-07  2.64602349E+00
 -1.46370676E-29  2.29153115E+00  1.32301190E+00 -1.69210664E-28  2.29153115E+00
  1.32301190E+00 -1.69210664E-28  2.29153115E+00  1.32301190E+00 -1.69210664E-28
  2.29153115E+00  1.32301190E+00 -1.69210664E-28  2.29153115E+00  1.32301190E+00
 -1.69210664E-28  2.29153115E+00  1.32301190E+00 -1.69210664E-28  2.29153115E+00
 -1.32301681E+00  1.16751414E-28  2.29153115E+00 -1.32301681E+00  1.16751414E-28
  2.29153115E+00 -1.32301681E+00  1.16751414E-28  2.29153115E+00 -1.32301681E+00
  1.16751414E-28  2.29153115E+00 -1.32301681E+00  1.16751414E-28  2.29153115E+00
 -1.32301681E+00  1.16751414E-28 -7.55168834E-07 -2.64602349E+00  1.46000897E-29
 -7.55168834E-07 -2.64602349E+00  1.46000897E-29 -7.55168834E-07 -2.64602349E+00
  1.46000897E-29 -7.55168834E-07 -2.64602349E+00  1.46000897E-29 -7.55168834E-07
 -2.64602349E+00  1.46000897E-29 -7.55168834E-07 -2.64602349E+00  1.46000897E-29
 -2.29153115E+00 -1.32301190E+00  1.69210664E-28 -2.29153115E+00 -1.32301190E+00
  1.69210664E-28 -2.29153115E+00 -1.32301190E+00  1.69210664E-28 -2.29153115E+00
 -1.32301190E+00  1.69210664E-28 -2.29153115E+00 -1.32301190E+00  1.69210664E-28
 -2.29153115E+00 -1.32301190E+00  1.69210664E-28 -4.07005054E+00  2.34985085E+00
 -1.91890415E-28 -4.07005054E+00  2.34985085E+00 -1.91890415E-28 -4.07005054E+00
  2.34985085E+00 -1.91890415E-28 -4.07005054E+00  2.34985085E+00 -1.91890415E-28
 -4.07005054E+00  2.34985085E+00 -1.91890415E-28  3.59034214E-06  4.69968403E+00
 -1.14532743E-28  3.59034214E-06  4.69968403E+00 -1.14532743E-28  3.59034214E-06
  4.69968403E+00 -1.14532743E-28  3.59034214E-06  4.69968403E+00 -1.14532743E-28
  3.59034214E-06  4.69968403E+00 -1.14532743E-28  4.07005160E+00  2.34984447E+00
  1.13102932E-28  4.07005160E+00  2.34984447E+00  1.13102932E-28  4.07005160E+00
  2.34984447E+00  1.13102932E-28  4.07005160E+00  2.34984447E+00  1.13102932E-28
  4.07005160E+00  2.34984447E+00  1.13102932E-28  4.07005054E+00 -2.34985085E+00
  1.91890415E-28  4.07005054E+00 -2.34985085E+00  1.91890415E-28  4.07005054E+00
 -2.34985085E+00  1.91890415E-28  4.07005054E+00 -2.34985085E+00  1.91890415E-28
  4.07005054E+00 -2.34985085E+00  1.91890415E-28 -3.59034214E-06 -4.69968403E+00
  1.14471113E-28 -3.59034214E-06 -4.69968403E+00  1.14471113E-28 -3.59034214E-06
 -4.69968403E+00  1.14471113E-28 -3.59034214E-06 -4.69968403E+00  1.14471113E-28
 -3.59034214E-06 -4.69968403E+00  1.14471113E-28 -4.07005160E+00 -2.34984447E+00
 -1.13102932E-28 -4.07005160E+00 -2.34984447E+00 -1.13102932E-28 -4.07005160E+00
 -2.34984447E+00 -1.13102932E-28 -4.07005160E+00 -2.34984447E+00 -1.13102932E-28
 -4.07005160E+00 -2.34984447E+00 -1.13102932E-28
Constraint Structure                       R   N=          36
 -2.29153115E+00  1.32301681E+00 -1.16751414E-28  7.55168834E-07  2.64602349E+00
 -1.46370676E-29  2.29153115E+00  1.32301190E+00 -1.69210664E-28  2.29153115E+00
 -1.32301681E+00  1.16751414E-28 -7.55168834E-07 -2.64602349E+00  1.46000897E-29
 -2.29153115E+00 -1.32301190E+00  1.69210664E-28 -4.07005054E+00  2.34985085E+00
 -1.91890415E-28  3.59034214E-06  4.69968403E+00 -1.14532743E-28  4.07005160E+00
  2.34984447E+00  1.13102932E-28  4.07005054E+00 -2.34985085E+00  1.91890415E-28
 -3.59034214E-06 -4.69968403E+00  1.14471113E-28 -4.07005160E+00 -2.34984447E+00
 -1.13102932E-28
Num ILSW                                   I              100
ILSW                                       I   N=         100
           0           0           0           1           2           0
           0           0           0           0           0          -1
           0           0           0           0           2           0
           0           0           1           0           1           0
           1           0           0           0           0           0
           0           0      100000           0          -1           0
           0           0           0           0           0           0
           0           0           0           1           1           0
           0           0           1           0           0           0
           0           0           4          41           0           0
           0           0           0           0           0           0
           0           0           0           0           0           0
           0           0           0           0           0           0
           0           0           0           0           0           0
           0           0           0           0           0           0
           0           0           0           0           0           0
           0           0           0           0
Num RLSW                                   I               41
RLSW                                       R   N=          41
  1.00000000E+00  1.00000000E+00  1.00000000E+00  1.00000000E+00  1.00000000E+00
  0.00000000E+00  0.00000000E+00  1.00000000E+00  0.00000000E+00  0.00000000E+00
  0.00000000E+00  0.00000000E+00  1.00000000E+00  0.00000000E+00  0.00000000E+00
  0.00000000E+00  0.00000000E+00  1.00000000E+00  0.00000000E+00  0.00000000E+00
  0.00000000E+00  0.00000000E+00  1.00000000E+00  0.00000000E+00  0.00000000E+00
  0.00000000E+00  0.00000000E+00  1.00000000E+00  0.00000000E+00  0.00000000E+00
  0.00000000E+00  0.00000000E+00  1.00000000E+00  0.00000000E+00  0.00000000E+00
  0.00000000E+00  0.00000000E+00  0.00000000E+00  1.00000000E+00  1.00000000E+00
  0.00000000E+00
MxBond                                     I                3
NBond                                      I   N=          12
           3           3           3           3           3           3
           1           1           1           1           1           1
IBond                                      I   N=          36
           2           6           7           1           3           8
           2           4           9           3           5          10
           4           6          11           1           5          12
           1           0           0           2           0           0
           3           0           0           4           0           0
           5           0           0           6           0           0
RBond                                      R   N=          36
  1.50000000E+00  1.50000000E+00  1.00000000E+00  1.50000000E+00  1.50000000E+00
  1.00000000E+00  1.50000000E+00  1.50000000E+00  1.00000000E+00  1.50000000E+00
  1.50000000E+00  1.00000000E+00  1.50000000E+00  1.50000000E+00  1.00000000E+00
  1.50000000E+00  1.50000000E+00  1.00000000E+00  1.00000000E+00  0.00000000E+00
  0.00000000E+00  1.00000000E+00  0.00000000E+00  0.00000000E+00  1.00000000E+00
  0.00000000E+00  0.00000000E+00  1.00000000E+00  0.00000000E+00  0.00000000E+00
  1.00000000E+00  0.00000000E+00  0.00000000E+00  1.00000000E+00  0.00000000E+00
  0.00000000E+00
Virial Ratio                               R      2.001772095977713E+00
SCF Energy                                 R     -2.307551457220669E+02
MP2 Energy                                 R     -2.315842575106345E+02
Total Energy                               R     -2.315842575106345E+02
Post-SCF wavefunction norm                 R      1.618030573416031E+00
RMS Force                                  R      4.505241661913153E-07
RMS Density                                R      1.247696366265457E-09
External E-field                           R   N=          35
  0.00000000E+00  0.00000000E+00  0.00000000E+00  0.00000000E+00  0.00000000E+00
  0.00000000E+00  0.00000000E+00  0.00000000E+00  0.00000000E+00  0.00000000E+00
  0.00000000E+00  0.00000000E+00  0.00000000E+00  0.00000000E+00  0.00000000E+00
  0.00000000E+00  0.00000000E+00  0.00000000E+00  0.00000000E+00  0.00000000E+00
  0.00000000E+00  0.00000000E+00  0.00000000E+00  0.00000000E+00  0.00000000E+00
  0.00000000E+00  0.00000000E+00  0.00000000E+00  0.00000000E+00  0.00000000E+00
  0.00000000E+00  0.00000000E+00  0.00000000E+00  0.00000000E+00  0.00000000E+00
IOpCl                                      I                0
IROHF                                      I                0
Alpha Orbital Energies                     R   N=         174
 -1.12412575E+01 -1.12407029E+01 -1.12407028E+01 -1.12395047E+01 -1.12395046E+01
 -1.12389171E+01 -1.14887008E+00 -1.01454834E+00 -1.01454770E+00 -8.24147276E-01
 -8.24146831E-01 -7.08556537E-01 -6.45157716E-01 -6.18728964E-01 -5.88612163E-01
 -5.88610913E-01 -4.99792054E-01 -4.96001448E-01 -4.96000393E-01 -3.36189217E-01
 -3.36188787E-01  4.21413732E-02  4.89384985E-02  4.89385332E-02  6.61638521E-02
  6.61638928E-02  8.79413046E-02  1.08065597E-01  1.08065882E-01  1.29648218E-01
  1.52715631E-01  1.52715699E-01  1.58084094E-01  1.62679398E-01  1.80708801E-01
  1.80708910E-01  1.83438224E-01  1.83438233E-01  1.92777425E-01  2.08853172E-01
  2.12121771E-01  2.12121846E-01  2.15727697E-01  2.15727847E-01  2.16755577E-01
  2.28189728E-01  2.28189858E-01  2.49999388E-01  2.49999397E-01  2.89003474E-01
  2.89003565E-01  3.02849062E-01  3.33248727E-01  3.33254838E-01  3.65642924E-01
  4.07418550E-01  4.07418792E-01  4.27790076E-01  4.27790207E-01  4.38096379E-01
  4.96467777E-01  4.96467996E-01  5.06126560E-01  5.06126999E-01  6.04726532E-01
  6.07496786E-01  7.15881783E-01  7.22461444E-01  7.22461513E-01  7.22825583E-01
  7.46888958E-01  7.48245322E-01  7.48245627E-01  7.58669331E-01  7.58669438E-01
  7.96265931E-01  8.19228908E-01  8.19229005E-01  8.84465169E-01  9.38290012E-01
  9.38290511E-01  9.47369800E-01  9.47371028E-01  9.75345079E-01  1.01539666E+00
  1.01539676E+00  1.01855115E+00  1.05934059E+00  1.05934068E+00  1.09689949E+00
  1.11823249E+00  1.11823270E+00  1.12402268E+00  1.17049986E+00  1.21547625E+00
  1.21547697E+00  1.24721518E+00  1.32113802E+00  1.32113945E+00  1.38784225E+00
  1.38784313E+00  1.52001990E+00  1.55829349E+00  1.70884299E+00  1.77991801E+00
  1.77992058E+00  1.79077599E+00  1.82183675E+00  1.84034232E+00  1.84034295E+00
  1.90219048E+00  1.90219166E+00  1.92797789E+00  1.92797963E+00  1.98884244E+00
  2.05204976E+00  2.05205051E+00  2.09795722E+00  2.09795879E+00  2.12283115E+00
  2.23015773E+00  2.23016000E+00  2.23712421E+00  2.24380875E+00  2.24381032E+00
  2.29081304E+00  2.33972402E+00  2.33972434E+00  2.37216372E+00  2.37216487E+00
  2.62891815E+00  2.65205734E+00  2.73187498E+00  2.73187559E+00  2.73912557E+00
  2.80890590E+00  2.80890716E+00  2.94782849E+00  2.94783060E+00  2.98609827E+00
  2.98840119E+00  3.02125990E+00  3.02126041E+00  3.04610986E+00  3.04611002E+00
  3.05491715E+00  3.09155900E+00  3.18907217E+00  3.18907277E+00  3.24846615E+00
  3.29031929E+00  3.29031976E+00  3.31167854E+00  3.31168020E+00  3.47499742E+00
  3.53334186E+00  3.76181311E+00  3.76181381E+00  3.89384295E+00  3.89384370E+00
  3.90866691E+00  4.04988374E+00  4.40026522E+00  4.40026636E+00  4.48733870E+00
  4.56965509E+00  4.56965680E+00  5.26663633E+00  2.47454183E+01  2.51210961E+01
  2.51210971E+01  2.52358816E+01  2.52358828E+01  2.53440822E+01
Alpha MO coefficients                      R   N=       30276
  2.29924934E-01  1.90371117E-01  2.59408970E-05 -1.49833266E-05  0.00000000E+00
  1.99969362E-03  1.58714604E-04 -9.16396898E-05  0.00000000E+00 -3.78521989E-04
 -1.10916688E-05  6.40543276E-06  0.00000000E+00 -8.99398367E-05  1.62716017E-04
 -9.39426169E-05  0.00000000E+00 -1.14196374E-04  0.00000000E+00  0.00000000E+00
 -3.21136287E-05  5.56191778E-05  2.29903717E-01  1.90353542E-01 -9.42465370E-10
 -2.99656862E-05  0.00000000E+00  1.99954607E-03 -1.45916373E-09 -1.83265862E-04
  0.00000000E+00 -3.78497885E-04  5.22519748E-10  1.27960683E-05  0.00000000E+00
 -9.01904118E-05 -1.05257700E-09 -1.87782691E-04  0.00000000E+00 -1.14178136E-04
  0.00000000E+00  0.00000000E+00  6.42247515E-05  5.98577692E-10  2.29921871E-01
  1.90368579E-01 -2.59414237E-05 -1.49848288E-05  0.00000000E+00  1.99967156E-03
 -1.58713734E-04 -9.16400580E-05  0.00000000E+00 -3.78517382E-04  1.10894529E-05
  6.40369420E-06  0.00000000E+00 -8.99768834E-05 -1.62704618E-04 -9.39322819E-05
  0.00000000E+00 -1.14193605E-04  0.00000000E+00  0.00000000E+00 -3.21142011E-05
 -5.56189276E-05  2.29924934E-01  1.90371117E-01 -2.59408970E-05  1.49833266E-05
  0.00000000E+00  1.99969362E-03 -1.58714604E-04  9.16396898E-05  0.00000000E+00
 -3.78521989E-04  1.10916688E-05 -6.40543276E-06  0.00000000E+00 -8.99398367E-05
 -1.62716017E-04  9.39426169E-05  0.00000000E+00 -1.14196374E-04  0.00000000E+00
  0.00000000E+00 -3.21136287E-05  5.56191778E-05  2.29903717E-01  1.90353542E-01
  9.42465370E-10  2.99656862E-05  0.00000000E+00  1.99954607E-03  1.45916373E-09
  1.83265862E-04  0.00000000E+00 -3.78497885E-04 -5.22519748E-10 -1.27960683E-05
  0.00000000E+00 -9.01904118E-05  1.05257700E-09  1.87782691E-04  0.00000000E+00
 -1.14178136E-04  0.00000000E+00  0.00000000E+00  6.42247515E-05  5.98577692E-10
  2.29921871E-01  1.90368579E-01  2.59414237E-05  1.49848288E-05  0.00000000E+00
  1.99967156E-03  1.58713734E-04  9.16400580E-05  0.00000000E+00 -3.78517382E-04
 -1.10894529E-05 -6.40369420E-06  0.00000000E+00 -8.99768834E-05  1.62704618E-04
  9.39322819E-05  0.00000000E+00 -1.14193605E-04  0.00000000E+00  0.00000000E+00
 -3.21142011E-05 -5.56189276E-05  1.75697891E-04 -1.07613666E-05  2.35877144E-04
  8.43727051E-05  2.91644137E-05 -1.68387192E-05  0.00000000E+00  1.75682613E-04
 -1.07512393E-05  2.35859366E-04  8.43335288E-05 -2.23225874E-10 -3.36775239E-05
  0.00000000E+00  1.75695648E-04 -1.07594404E-05  2.35874784E-04  8.43673415E-05
 -2.91646593E-05 -1.68389182E-05  0.00000000E+00  1.75697891E-04 -1.07613666E-05
  2.35877144E-04  8.43727051E-05 -2.91644137E-05  1.68387192E-05  0.00000000E+00
  1.75682613E-04 -1.07512393E-05  2.35859366E-04  8.43335288E-05  2.23225874E-10
  3.36775239E-05  0.00000000E+00  1.75695648E-04 -1.07594404E-05  2.35874784E-04
  8.43673415E-05  2.91646593E-05  1.68389182E-05  0.00000000E+00  2.92546270E-01
  2.42257469E-01 -3.45870842E-05 -7.06865785E-05  0.00000000E+00  2.36162785E-03
  6.90031260E-05 -1.22050657E-04  0.00000000E+00 -2.99686037E-04  6.41425579E-05
  7.29994848E-05  0.00000000E+00 -1.30726289E-03  6.54114973E-04 -9.51538458E-04
  0.00000000E+00 -1.70118190E-04  0.00000000E+00  0.00000000E+00 -7.85567706E-05
  3.99130273E-05  2.32795820E-02  1.92778135E-02 -1.79313449E-04 -4.30250985E-07
  0.00000000E+00  1.87931080E-04 -1.62611221E-04 -9.61088035E-06  0.00000000E+00
 -2.38409692E-05  2.17639366E-04 -1.52293198E-06  0.00000000E+00 -1.03958511E-04
 -1.13511611E-03 -8.29615485E-05  0.00000000E+00 -1.35364013E-05  0.00000000E+00
  0.00000000E+00  5.87780275E-06  1.09802544E-04 -2.69261614E-01 -2.22975452E-01
 -4.61024107E-05  8.97788136E-05  0.00000000E+00 -2.17366257E-03  5.05689236E-05
  1.34752017E-04  0.00000000E+00  2.75820224E-04  7.63689764E-05 -9.71835121E-05
  0.00000000E+00  1.20308779E-03  5.11751897E-04  1.03229391E-03  0.00000000E+00
  1.56576436E-04  0.00000000E+00  0.00000000E+00  8.74418269E-05  2.79995209E-05
 -2.92546270E-01 -2.42257469E-01 -3.45870842E-05 -7.06865785E-05  0.00000000E+00
 -2.36162785E-03  6.90031260E-05 -1.22050657E-04  0.00000000E+00  2.99686037E-04
  6.41425579E-05  7.29994848E-05  0.00000000E+00  1.30726289E-03  6.54114973E-04
 -9.51538458E-04  0.00000000E+00  1.70118190E-04  0.00000000E+00  0.00000000E+00
  7.85567706E-05 -3.99130273E-05 -2.32795820E-02 -1.92778135E-02 -1.79313449E-04
 -4.30250985E-07  0.00000000E+00 -1.87931080E-04 -1.62611221E-04 -9.61088035E-06