Bla-0.15                                                                
SP        RMP2-FC                                                     6-311++G(d,p)       
Number of atoms                            I               12
Info1-9                                    I   N=           9
          24          21           0           0           0         110
           1           2           1
Charge                                     I                0
Multiplicity                               I                1
Number of electrons                        I               42
Number of alpha electrons                  I               21
Number of beta electrons                   I               21
Number of basis functions                  I              174
Number of independent functions            I              174
Number of point charges in /Mol/           I                0
Number of translation vectors              I                0
Atomic numbers                             I   N=          12
           6           6           6           6           6           6
           1           1           1           1           1           1
Nuclear charges                            R   N=          12
  6.00000000E+00  6.00000000E+00  6.00000000E+00  6.00000000E+00  6.00000000E+00
  6.00000000E+00  1.00000000E+00  1.00000000E+00  1.00000000E+00  1.00000000E+00
  1.00000000E+00  1.00000000E+00
Current cartesian coordinates              R   N=          36
  1.24690177E+00  2.32335025E+00  0.00000000E+00  2.63553123E+00 -8.18265131E-02
 -1.70058061E-16  1.38862945E+00 -2.24152374E+00  0.00000000E+00 -1.38862945E+00
 -2.24152374E+00  3.22759488E-16 -2.63553123E+00 -8.18265131E-02  0.00000000E+00
 -1.24690177E+00  2.32335025E+00 -1.52701427E-16  2.27153396E+00  4.09806765E+00
  0.00000000E+00  4.68479767E+00 -8.18277107E-02 -2.95539568E-16  2.41326371E+00
 -4.01623994E+00  0.00000000E+00 -2.41326371E+00 -4.01623994E+00  5.73722247E-16
 -4.68479767E+00 -8.18277107E-02  0.00000000E+00 -2.27153396E+00  4.09806765E+00
 -2.78182679E-16
Force Field                                I                0
Int Atom Types                             I   N=          12
           0           0           0           0           0           0
           0           0           0           0           0           0
MM charges                                 R   N=          12
  0.00000000E+00  0.00000000E+00  0.00000000E+00  0.00000000E+00  0.00000000E+00
  0.00000000E+00  0.00000000E+00  0.00000000E+00  0.00000000E+00  0.00000000E+00
  0.00000000E+00  0.00000000E+00
Integer atomic weights                     I   N=          12
          12          12          12          12          12          12
           1           1           1           1           1           1
Real atomic weights                        R   N=          12
  1.20000000E+01  1.20000000E+01  1.20000000E+01  1.20000000E+01  1.20000000E+01
  1.20000000E+01  1.00782504E+00  1.00782504E+00  1.00782504E+00  1.00782504E+00
  1.00782504E+00  1.00782504E+00
Atom fragment info                         I   N=          12
           0           0           0           0           0           0
           0           0           0           0           0           0
Atom residue num                           I   N=          12
           0           0           0           0           0           0
           0           0           0           0           0           0
Nuclear spins                              I   N=          12
           0           0           0           0           0           0
           1           1           1           1           1           1
Nuclear ZEff                               R   N=          12
 -3.60000000E+00 -3.60000000E+00 -3.60000000E+00 -3.60000000E+00 -3.60000000E+00
 -3.60000000E+00 -1.00000000E+00 -1.00000000E+00 -1.00000000E+00 -1.00000000E+00
 -1.00000000E+00 -1.00000000E+00
Nuclear QMom                               R   N=          12
  0.00000000E+00  0.00000000E+00  0.00000000E+00  0.00000000E+00  0.00000000E+00
  0.00000000E+00  0.00000000E+00  0.00000000E+00  0.00000000E+00  0.00000000E+00
  0.00000000E+00  0.00000000E+00
Nuclear GFac                               R   N=          12
  0.00000000E+00  0.00000000E+00  0.00000000E+00  0.00000000E+00  0.00000000E+00
  0.00000000E+00  2.79284600E+00  2.79284600E+00  2.79284600E+00  2.79284600E+00
  2.79284600E+00  2.79284600E+00
MicOpt                                     I   N=          12
          -1          -1          -1          -1          -1          -1
          -1          -1          -1          -1          -1          -1
Number of contracted shells                I               66
Number of primitive shells                 I              120
Pure/Cartesian d shells                    I                0
Pure/Cartesian f shells                    I                0
Highest angular momentum                   I                2
Largest degree of contraction              I                6
Shell types                                I   N=          66
           0          -1          -1          -1          -1          -2
           0          -1          -1          -1          -1          -2
           0          -1          -1          -1          -1          -2
           0          -1          -1          -1          -1          -2
           0          -1          -1          -1          -1          -2
           0          -1          -1          -1          -1          -2
           0           0           0           0           1           0
           0           0           0           1           0           0
           0           0           1           0           0           0
           0           1           0           0           0           0
           1           0           0           0           0           1
Number of primitives per shell             I   N=          66
           6           3           1           1           1           1
           6           3           1           1           1           1
           6           3           1           1           1           1
           6           3           1           1           1           1
           6           3           1           1           1           1
           6           3           1           1           1           1
           3           1           1           1           1           3
           1           1           1           1           3           1
           1           1           1           3           1           1
           1           1           3           1           1           1
           1           3           1           1           1           1
Shell to atom map                          I   N=          66
           1           1           1           1           1           1
           2           2           2           2           2           2
           3           3           3           3           3           3
           4           4           4           4           4           4
           5           5           5           5           5           5
           6           6           6           6           6           6
           7           7           7           7           7           8
           8           8           8           8           9           9
           9           9           9          10          10          10
          10          10          11          11          11          11
          11          12          12          12          12          12
Primitive exponents                        R   N=         120
  4.56324000E+03  6.82024000E+02  1.54973000E+02  4.44553000E+01  1.30290000E+01
  1.82773000E+00  2.09642000E+01  4.80331000E+00  1.45933000E+00  4.83456000E-01
  1.45585000E-01  4.38000000E-02  6.26000000E-01  4.56324000E+03  6.82024000E+02
  1.54973000E+02  4.44553000E+01  1.30290000E+01  1.82773000E+00  2.09642000E+01
  4.80331000E+00  1.45933000E+00  4.83456000E-01  1.45585000E-01  4.38000000E-02
  6.26000000E-01  4.56324000E+03  6.82024000E+02  1.54973000E+02  4.44553000E+01
  1.30290000E+01  1.82773000E+00  2.09642000E+01  4.80331000E+00  1.45933000E+00
  4.83456000E-01  1.45585000E-01  4.38000000E-02  6.26000000E-01  4.56324000E+03
  6.82024000E+02  1.54973000E+02  4.44553000E+01  1.30290000E+01  1.82773000E+00
  2.09642000E+01  4.80331000E+00  1.45933000E+00  4.83456000E-01  1.45585000E-01
  4.38000000E-02  6.26000000E-01  4.56324000E+03  6.82024000E+02  1.54973000E+02
  4.44553000E+01  1.30290000E+01  1.82773000E+00  2.09642000E+01  4.80331000E+00
  1.45933000E+00  4.83456000E-01  1.45585000E-01  4.38000000E-02  6.26000000E-01
  4.56324000E+03  6.82024000E+02  1.54973000E+02  4.44553000E+01  1.30290000E+01
  1.82773000E+00  2.09642000E+01  4.80331000E+00  1.45933000E+00  4.83456000E-01
  1.45585000E-01  4.38000000E-02  6.26000000E-01  3.38650000E+01  5.09479000E+00
  1.15879000E+00  3.25840000E-01  1.02741000E-01  3.60000000E-02  7.50000000E-01
  3.38650000E+01  5.09479000E+00  1.15879000E+00  3.25840000E-01  1.02741000E-01
  3.60000000E-02  7.50000000E-01  3.38650000E+01  5.09479000E+00  1.15879000E+00
  3.25840000E-01  1.02741000E-01  3.60000000E-02  7.50000000E-01  3.38650000E+01
  5.09479000E+00  1.15879000E+00  3.25840000E-01  1.02741000E-01  3.60000000E-02
  7.50000000E-01  3.38650000E+01  5.09479000E+00  1.15879000E+00  3.25840000E-01
  1.02741000E-01  3.60000000E-02  7.50000000E-01  3.38650000E+01  5.09479000E+00
  1.15879000E+00  3.25840000E-01  1.02741000E-01  3.60000000E-02  7.50000000E-01
Contraction coefficients                   R   N=         120
  1.96665025E-03  1.52306019E-02  7.61269097E-02  2.60801033E-01  6.16462078E-01
  2.21006028E-01  1.14660081E-01  9.19999648E-01 -3.03068213E-03  1.00000000E+00
  1.00000000E+00  1.00000000E+00  1.00000000E+00  1.96665025E-03  1.52306019E-02
  7.61269097E-02  2.60801033E-01  6.16462078E-01  2.21006028E-01  1.14660081E-01
  9.19999648E-01 -3.03068213E-03  1.00000000E+00  1.00000000E+00  1.00000000E+00
  1.00000000E+00  1.96665025E-03  1.52306019E-02  7.61269097E-02  2.60801033E-01
  6.16462078E-01  2.21006028E-01  1.14660081E-01  9.19999648E-01 -3.03068213E-03
  1.00000000E+00  1.00000000E+00  1.00000000E+00  1.00000000E+00  1.96665025E-03
  1.52306019E-02  7.61269097E-02  2.60801033E-01  6.16462078E-01  2.21006028E-01
  1.14660081E-01  9.19999648E-01 -3.03068213E-03  1.00000000E+00  1.00000000E+00
  1.00000000E+00  1.00000000E+00  1.96665025E-03  1.52306019E-02  7.61269097E-02
  2.60801033E-01  6.16462078E-01  2.21006028E-01  1.14660081E-01  9.19999648E-01
 -3.03068213E-03  1.00000000E+00  1.00000000E+00  1.00000000E+00  1.00000000E+00
  1.96665025E-03  1.52306019E-02  7.61269097E-02  2.60801033E-01  6.16462078E-01
  2.21006028E-01  1.14660081E-01  9.19999648E-01 -3.03068213E-03  1.00000000E+00
  1.00000000E+00  1.00000000E+00  1.00000000E+00  2.54938145E-02  1.90373109E-01
  8.52161486E-01  1.00000000E+00  1.00000000E+00  1.00000000E+00  1.00000000E+00
  2.54938145E-02  1.90373109E-01  8.52161486E-01  1.00000000E+00  1.00000000E+00
  1.00000000E+00  1.00000000E+00  2.54938145E-02  1.90373109E-01  8.52161486E-01
  1.00000000E+00  1.00000000E+00  1.00000000E+00  1.00000000E+00  2.54938145E-02
  1.90373109E-01  8.52161486E-01  1.00000000E+00  1.00000000E+00  1.00000000E+00
  1.00000000E+00  2.54938145E-02  1.90373109E-01  8.52161486E-01  1.00000000E+00
  1.00000000E+00  1.00000000E+00  1.00000000E+00  2.54938145E-02  1.90373109E-01
  8.52161486E-01  1.00000000E+00  1.00000000E+00  1.00000000E+00  1.00000000E+00
P(S=P) Contraction coefficients            R   N=         120
  0.00000000E+00  0.00000000E+00  0.00000000E+00  0.00000000E+00  0.00000000E+00
  0.00000000E+00  4.02486927E-02  2.37593957E-01  8.15853851E-01  1.00000000E+00
  1.00000000E+00  1.00000000E+00  0.00000000E+00  0.00000000E+00  0.00000000E+00
  0.00000000E+00  0.00000000E+00  0.00000000E+00  0.00000000E+00  4.02486927E-02
  2.37593957E-01  8.15853851E-01  1.00000000E+00  1.00000000E+00  1.00000000E+00
  0.00000000E+00  0.00000000E+00  0.00000000E+00  0.00000000E+00  0.00000000E+00
  0.00000000E+00  0.00000000E+00  4.02486927E-02  2.37593957E-01  8.15853851E-01
  1.00000000E+00  1.00000000E+00  1.00000000E+00  0.00000000E+00  0.00000000E+00
  0.00000000E+00  0.00000000E+00  0.00000000E+00  0.00000000E+00  0.00000000E+00
  4.02486927E-02  2.37593957E-01  8.15853851E-01  1.00000000E+00  1.00000000E+00
  1.00000000E+00  0.00000000E+00  0.00000000E+00  0.00000000E+00  0.00000000E+00
  0.00000000E+00  0.00000000E+00  0.00000000E+00  4.02486927E-02  2.37593957E-01
  8.15853851E-01  1.00000000E+00  1.00000000E+00  1.00000000E+00  0.00000000E+00
  0.00000000E+00  0.00000000E+00  0.00000000E+00  0.00000000E+00  0.00000000E+00
  0.00000000E+00  4.02486927E-02  2.37593957E-01  8.15853851E-01  1.00000000E+00
  1.00000000E+00  1.00000000E+00  0.00000000E+00  0.00000000E+00  0.00000000E+00
  0.00000000E+00  0.00000000E+00  0.00000000E+00  0.00000000E+00  0.00000000E+00
  0.00000000E+00  0.00000000E+00  0.00000000E+00  0.00000000E+00  0.00000000E+00
  0.00000000E+00  0.00000000E+00  0.00000000E+00  0.00000000E+00  0.00000000E+00
  0.00000000E+00  0.00000000E+00  0.00000000E+00  0.00000000E+00  0.00000000E+00
  0.00000000E+00  0.00000000E+00  0.00000000E+00  0.00000000E+00  0.00000000E+00
  0.00000000E+00  0.00000000E+00  0.00000000E+00  0.00000000E+00  0.00000000E+00
  0.00000000E+00  0.00000000E+00  0.00000000E+00  0.00000000E+00  0.00000000E+00
  0.00000000E+00  0.00000000E+00  0.00000000E+00  0.00000000E+00  0.00000000E+00
Coordinates of each shell                  R   N=         198
  1.24690177E+00  2.32335025E+00  0.00000000E+00  1.24690177E+00  2.32335025E+00
  0.00000000E+00  1.24690177E+00  2.32335025E+00  0.00000000E+00  1.24690177E+00
  2.32335025E+00  0.00000000E+00  1.24690177E+00  2.32335025E+00  0.00000000E+00
  1.24690177E+00  2.32335025E+00  0.00000000E+00  2.63553123E+00 -8.18265131E-02
 -1.70058061E-16  2.63553123E+00 -8.18265131E-02 -1.70058061E-16  2.63553123E+00
 -8.18265131E-02 -1.70058061E-16  2.63553123E+00 -8.18265131E-02 -1.70058061E-16
  2.63553123E+00 -8.18265131E-02 -1.70058061E-16  2.63553123E+00 -8.18265131E-02
 -1.70058061E-16  1.38862945E+00 -2.24152374E+00  0.00000000E+00  1.38862945E+00
 -2.24152374E+00  0.00000000E+00  1.38862945E+00 -2.24152374E+00  0.00000000E+00
  1.38862945E+00 -2.24152374E+00  0.00000000E+00  1.38862945E+00 -2.24152374E+00
  0.00000000E+00  1.38862945E+00 -2.24152374E+00  0.00000000E+00 -1.38862945E+00
 -2.24152374E+00  3.22759488E-16 -1.38862945E+00 -2.24152374E+00  3.22759488E-16
 -1.38862945E+00 -2.24152374E+00  3.22759488E-16 -1.38862945E+00 -2.24152374E+00
  3.22759488E-16 -1.38862945E+00 -2.24152374E+00  3.22759488E-16 -1.38862945E+00
 -2.24152374E+00  3.22759488E-16 -2.63553123E+00 -8.18265131E-02  0.00000000E+00
 -2.63553123E+00 -8.18265131E-02  0.00000000E+00 -2.63553123E+00 -8.18265131E-02
  0.00000000E+00 -2.63553123E+00 -8.18265131E-02  0.00000000E+00 -2.63553123E+00
 -8.18265131E-02  0.00000000E+00 -2.63553123E+00 -8.18265131E-02  0.00000000E+00
 -1.24690177E+00  2.32335025E+00 -1.52701427E-16 -1.24690177E+00  2.32335025E+00
 -1.52701427E-16 -1.24690177E+00  2.32335025E+00 -1.52701427E-16 -1.24690177E+00
  2.32335025E+00 -1.52701427E-16 -1.24690177E+00  2.32335025E+00 -1.52701427E-16
 -1.24690177E+00  2.32335025E+00 -1.52701427E-16  2.27153396E+00  4.09806765E+00
  0.00000000E+00  2.27153396E+00  4.09806765E+00  0.00000000E+00  2.27153396E+00
  4.09806765E+00  0.00000000E+00  2.27153396E+00  4.09806765E+00  0.00000000E+00
  2.27153396E+00  4.09806765E+00  0.00000000E+00  4.68479767E+00 -8.18277107E-02
 -2.95539568E-16  4.68479767E+00 -8.18277107E-02 -2.95539568E-16  4.68479767E+00
 -8.18277107E-02 -2.95539568E-16  4.68479767E+00 -8.18277107E-02 -2.95539568E-16
  4.68479767E+00 -8.18277107E-02 -2.95539568E-16  2.41326371E+00 -4.01623994E+00
  0.00000000E+00  2.41326371E+00 -4.01623994E+00  0.00000000E+00  2.41326371E+00
 -4.01623994E+00  0.00000000E+00  2.41326371E+00 -4.01623994E+00  0.00000000E+00
  2.41326371E+00 -4.01623994E+00  0.00000000E+00 -2.41326371E+00 -4.01623994E+00
  5.73722247E-16 -2.41326371E+00 -4.01623994E+00  5.73722247E-16 -2.41326371E+00
 -4.01623994E+00  5.73722247E-16 -2.41326371E+00 -4.01623994E+00  5.73722247E-16
 -2.41326371E+00 -4.01623994E+00  5.73722247E-16 -4.68479767E+00 -8.18277107E-02
  0.00000000E+00 -4.68479767E+00 -8.18277107E-02  0.00000000E+00 -4.68479767E+00
 -8.18277107E-02  0.00000000E+00 -4.68479767E+00 -8.18277107E-02  0.00000000E+00
 -4.68479767E+00 -8.18277107E-02  0.00000000E+00 -2.27153396E+00  4.09806765E+00
 -2.78182679E-16 -2.27153396E+00  4.09806765E+00 -2.78182679E-16 -2.27153396E+00
  4.09806765E+00 -2.78182679E-16 -2.27153396E+00  4.09806765E+00 -2.78182679E-16
 -2.27153396E+00  4.09806765E+00 -2.78182679E-16
Constraint Structure                       R   N=          36
  1.24690177E+00  2.32335025E+00  0.00000000E+00  2.63553123E+00 -8.18265131E-02
 -1.70058061E-16  1.38862945E+00 -2.24152374E+00  0.00000000E+00 -1.38862945E+00
 -2.24152374E+00  3.22759488E-16 -2.63553123E+00 -8.18265131E-02  0.00000000E+00
 -1.24690177E+00  2.32335025E+00 -1.52701427E-16  2.27153396E+00  4.09806765E+00
  0.00000000E+00  4.68479767E+00 -8.18277107E-02 -2.95539568E-16  2.41326371E+00
 -4.01623994E+00  0.00000000E+00 -2.41326371E+00 -4.01623994E+00  5.73722247E-16
 -4.68479767E+00 -8.18277107E-02  0.00000000E+00 -2.27153396E+00  4.09806765E+00
 -2.78182679E-16
Num ILSW                                   I              100
ILSW                                       I   N=         100
           0           0           0           0           2           0
           0           0           0           0           0          -1
           0           0           0           0           0           0
           0           0           0           0           0           0
           1           0           0           0           0           0
           0           0      100000           0          -1           0
           0           0           0           0           0           0
           0           0           0           1           0           0
           0           0           1           0           0           0
           0           0           4          40           0           0
           0           0           0           0           0           0
           0           0           0           0           0           0
           0           0           0           0           0           0
           0           0           0           0           0           0
           0           0           0           0           0           0
           0           0           0           0           0           0
           0           0           0           0
Num RLSW                                   I               40
RLSW                                       R   N=          40
  1.00000000E+00  1.00000000E+00  1.00000000E+00  1.00000000E+00  1.00000000E+00
  0.00000000E+00  0.00000000E+00  1.00000000E+00  0.00000000E+00  0.00000000E+00
  0.00000000E+00  0.00000000E+00  1.00000000E+00  0.00000000E+00  0.00000000E+00
  0.00000000E+00  0.00000000E+00  1.00000000E+00  0.00000000E+00  0.00000000E+00
  0.00000000E+00  0.00000000E+00  1.00000000E+00  0.00000000E+00  0.00000000E+00
  0.00000000E+00  0.00000000E+00  1.00000000E+00  0.00000000E+00  0.00000000E+00
  0.00000000E+00  0.00000000E+00  0.00000000E+00  0.00000000E+00  0.00000000E+00
  0.00000000E+00  0.00000000E+00  0.00000000E+00  1.00000000E+00  1.00000000E+00
MxBond                                     I                3
NBond                                      I   N=          12
           3           3           3           3           3           3
           1           1           1           1           1           1
IBond                                      I   N=          36
           2           6           7           1           3           8
           2           4           9           3           5          10
           4           6          11           1           5          12
           1           0           0           2           0           0
           3           0           0           4           0           0
           5           0           0           6           0           0
RBond                                      R   N=          36
  1.00000000E+00  2.00000000E+00  1.00000000E+00  1.00000000E+00  2.00000000E+00
  1.00000000E+00  2.00000000E+00  1.00000000E+00  1.00000000E+00  1.00000000E+00
  2.00000000E+00  1.00000000E+00  2.00000000E+00  1.00000000E+00  1.00000000E+00
  2.00000000E+00  1.00000000E+00  1.00000000E+00  1.00000000E+00  0.00000000E+00
  0.00000000E+00  1.00000000E+00  0.00000000E+00  0.00000000E+00  1.00000000E+00
  0.00000000E+00  0.00000000E+00  1.00000000E+00  0.00000000E+00  0.00000000E+00
  1.00000000E+00  0.00000000E+00  0.00000000E+00  1.00000000E+00  0.00000000E+00
  0.00000000E+00
Virial Ratio                               R      2.000544840509387E+00
SCF Energy                                 R     -2.307418815904726E+02
MP2 Energy                                 R     -2.315638266696674E+02
Total Energy                               R     -2.315638266696674E+02
Post-SCF wavefunction norm                 R      1.140521810791869E+00
RMS Density                                R      5.536344947315748E-09
External E-field                           R   N=          35
  0.00000000E+00  0.00000000E+00  0.00000000E+00  0.00000000E+00  0.00000000E+00
  0.00000000E+00  0.00000000E+00  0.00000000E+00  0.00000000E+00  0.00000000E+00
  0.00000000E+00  0.00000000E+00  0.00000000E+00  0.00000000E+00  0.00000000E+00
  0.00000000E+00  0.00000000E+00  0.00000000E+00  0.00000000E+00  0.00000000E+00
  0.00000000E+00  0.00000000E+00  0.00000000E+00  0.00000000E+00  0.00000000E+00
  0.00000000E+00  0.00000000E+00  0.00000000E+00  0.00000000E+00  0.00000000E+00
  0.00000000E+00  0.00000000E+00  0.00000000E+00  0.00000000E+00  0.00000000E+00
IOpCl                                      I                0
IROHF                                      I                0
Alpha Orbital Energies                     R   N=         174
 -1.12355427E+01 -1.12350379E+01 -1.12350379E+01 -1.12334519E+01 -1.12334519E+01
 -1.12329133E+01 -1.15293773E+00 -1.02143560E+00 -1.02143560E+00 -8.19031792E-01
 -8.19031792E-01 -7.10287580E-01 -6.42409719E-01 -6.19096431E-01 -5.93027216E-01
 -5.93027216E-01 -5.02451968E-01 -4.88395168E-01 -4.88395168E-01 -3.44432023E-01
 -3.44432023E-01  4.22516107E-02  4.90297553E-02  4.90297553E-02  6.63432685E-02
  6.63432686E-02  8.81480811E-02  1.13294094E-01  1.13294094E-01  1.28941448E-01
  1.53360021E-01  1.53360021E-01  1.58151351E-01  1.62907069E-01  1.81079478E-01
  1.81079479E-01  1.83606103E-01  1.83606103E-01  1.92786660E-01  2.09322602E-01
  2.12440607E-01  2.12440607E-01  2.17299362E-01  2.19154283E-01  2.19154283E-01
  2.28319995E-01  2.28319995E-01  2.50391948E-01  2.50391948E-01  2.88893153E-01
  2.88893153E-01  3.03132886E-01  3.33126532E-01  3.34461132E-01  3.70613431E-01
  4.02312525E-01  4.02312525E-01  4.27685763E-01  4.27685763E-01  4.39154632E-01
  4.89138803E-01  4.89138803E-01  5.21772192E-01  5.21772192E-01  5.95068035E-01
  6.18601762E-01  7.05863348E-01  7.11697776E-01  7.14333923E-01  7.14333923E-01
  7.54816755E-01  7.54816755E-01  7.60416122E-01  7.60416122E-01  7.71994927E-01
  7.99551594E-01  8.23913958E-01  8.23913958E-01  8.88113772E-01  9.11321161E-01
  9.11321161E-01  9.75835709E-01  9.89749016E-01  9.89749016E-01  1.01742007E+00
  1.01742007E+00  1.01857296E+00  1.06075892E+00  1.06075892E+00  1.07704629E+00
  1.12670928E+00  1.12670928E+00  1.16183695E+00  1.17712645E+00  1.21901056E+00
  1.21901056E+00  1.26729691E+00  1.32199575E+00  1.32199575E+00  1.39899363E+00
  1.39899363E+00  1.52359761E+00  1.55146763E+00  1.68950998E+00  1.78652161E+00
  1.78652161E+00  1.82222293E+00  1.82561306E+00  1.84095405E+00  1.84095405E+00
  1.88383587E+00  1.88383587E+00  1.95508476E+00  1.95508476E+00  1.99243807E+00
  2.05744088E+00  2.05744088E+00  2.10879510E+00  2.10879510E+00  2.13178038E+00
  2.23725167E+00  2.23725167E+00  2.23963575E+00  2.23963575E+00  2.24068213E+00
  2.30144309E+00  2.37415613E+00  2.37415613E+00  2.38691819E+00  2.38691819E+00
  2.64081139E+00  2.66494309E+00  2.73497221E+00  2.73497221E+00  2.74687342E+00
  2.82086720E+00  2.82086720E+00  2.95608212E+00  2.95608212E+00  2.98680224E+00
  2.99561030E+00  3.01643629E+00  3.01643629E+00  3.05365047E+00  3.05365047E+00
  3.06265035E+00  3.08999807E+00  3.19226759E+00  3.19226759E+00  3.27683180E+00
  3.29637192E+00  3.29637192E+00  3.32583565E+00  3.32583565E+00  3.48148110E+00
  3.50722488E+00  3.71219922E+00  3.71219922E+00  3.96682932E+00  3.98150931E+00
  3.98150931E+00  4.07446905E+00  4.39503837E+00  4.39503837E+00  4.48766942E+00
  4.55506924E+00  4.55506924E+00  5.22749354E+00  2.47390299E+01  2.49790421E+01
  2.49790421E+01  2.54823105E+01  2.54828572E+01  2.54828572E+01
Alpha MO coefficients                      R   N=       30276
  2.29890992E-01  1.90354849E-01  2.00791703E-05 -5.19192610E-05  0.00000000E+00
  2.04931912E-03 -1.71019609E-04 -1.23522018E-04  0.00000000E+00 -4.05438305E-04
  1.28615418E-05  3.29599462E-06  0.00000000E+00 -9.33902944E-05 -1.07112542E-04
 -1.64760120E-04  0.00000000E+00 -1.22419547E-04  0.00000000E+00  0.00000000E+00
  1.02503041E-04 -2.73812599E-05  2.29890992E-01  1.90354849E-01 -3.49238138E-05
  4.33487021E-05  0.00000000E+00  2.04931912E-03 -1.92483010E-04 -8.63463172E-05
  0.00000000E+00 -4.05438305E-04  9.28518616E-06  9.49042457E-06  0.00000000E+00
 -9.33903016E-05 -1.96242718E-04 -1.03821219E-05  0.00000000E+00 -1.22419547E-04
  0.00000000E+00  0.00000000E+00 -7.49643874E-05  7.50796078E-05  2.29890992E-01
  1.90354849E-01 -5.50029842E-05  8.57055892E-06  0.00000000E+00  2.04931912E-03
 -2.14634009E-05  2.09868335E-04  0.00000000E+00 -4.05438305E-04 -3.57635582E-06
 -1.27864193E-05  0.00000000E+00 -9.33902915E-05 -8.91301777E-05  1.75142243E-04
  0.00000000E+00 -1.22419547E-04  0.00000000E+00  0.00000000E+00 -2.75386540E-05
  1.02460868E-04  2.29890992E-01  1.90354849E-01  5.50029842E-05  8.57055892E-06
  0.00000000E+00  2.04931912E-03  2.14634009E-05  2.09868335E-04  0.00000000E+00
 -4.05438305E-04  3.57635582E-06 -1.27864193E-05  0.00000000E+00 -9.33902915E-05
  8.91301777E-05  1.75142243E-04  0.00000000E+00 -1.22419547E-04  0.00000000E+00
  0.00000000E+00 -2.75386540E-05 -1.02460868E-04  2.29890992E-01  1.90354849E-01
  3.49238138E-05  4.33487021E-05  0.00000000E+00  2.04931912E-03  1.92483010E-04
 -8.63463172E-05  0.00000000E+00 -4.05438305E-04 -9.28518616E-06  9.49042457E-06
  0.00000000E+00 -9.33903016E-05  1.96242718E-04 -1.03821219E-05  0.00000000E+00
 -1.22419547E-04  0.00000000E+00  0.00000000E+00 -7.49643874E-05 -7.50796078E-05
  2.29890992E-01  1.90354849E-01 -2.00791703E-05 -5.19192610E-05  0.00000000E+00
  2.04931912E-03  1.71019609E-04 -1.23522018E-04  0.00000000E+00 -4.05438305E-04
 -1.28615418E-05  3.29599462E-06  0.00000000E+00 -9.33902944E-05  1.07112542E-04
 -1.64760120E-04  0.00000000E+00 -1.22419547E-04  0.00000000E+00  0.00000000E+00
  1.02503041E-04  2.73812599E-05  1.79151167E-04 -1.00963586E-05  2.50325186E-04
  8.66519208E-05 -2.54314679E-05 -2.44900264E-05  0.00000000E+00  1.79151167E-04
 -1.00963586E-05  2.50325185E-04  8.66519198E-05 -3.39247190E-05 -9.77928404E-06
  0.00000000E+00  1.79151167E-04 -1.00963586E-05  2.50325185E-04  8.66519207E-05
 -8.49325109E-06  3.42693105E-05  0.00000000E+00  1.79151167E-04 -1.00963586E-05
  2.50325185E-04  8.66519207E-05  8.49325109E-06  3.42693105E-05  0.00000000E+00
  1.79151167E-04 -1.00963586E-05  2.50325185E-04  8.66519198E-05  3.39247190E-05
 -9.77928404E-06  0.00000000E+00  1.79151167E-04 -1.00963586E-05  2.50325186E-04
  8.66519208E-05  2.54314679E-05 -2.44900264E-05  0.00000000E+00  3.15625002E-01
  2.61399472E-01 -3.49292063E-05 -3.91690081E-06  0.00000000E+00  2.56806117E-03
 -3.20487478E-04  1.32902358E-04  0.00000000E+00 -5.23011758E-04  1.64526300E-04
  1.05551359E-05  0.00000000E+00  5.15982325E-05 -1.24348443E-03 -1.10567540E-03
  0.00000000E+00 -1.73564744E-04  0.00000000E+00  0.00000000E+00  2.19831818E-04
  5.73147352E-05 -9.01418683E-02 -7.46768530E-02  4.84963211E-06  1.30742408E-04
  0.00000000E+00 -6.52382492E-04 -9.17849147E-05  2.61187826E-04  0.00000000E+00
  4.94866920E-04 -2.27971829E-04 -2.64785334E-04  0.00000000E+00 -3.42484225E-03
  1.09502717E-03  1.31545338E-03  0.00000000E+00  3.20873806E-05  0.00000000E+00
  0.00000000E+00 -1.55022178E-05 -1.72279874E-04 -2.25483134E-01 -1.86722619E-01
  9.67289629E-05  3.73630781E-05  0.00000000E+00 -1.91567868E-03 -3.25280749E-06
 -1.59993273E-04  0.00000000E+00  2.81448387E-05 -4.22027775E-05 -1.82060539E-04
  0.00000000E+00  3.37324402E-03  9.27503227E-04 -2.36787646E-05  0.00000000E+00
  1.41477364E-04  0.00000000E+00  0.00000000E+00  2.60206875E-06 -8.90079482E-05
 -2.25483134E-01 -1.86722619E-01 -9.67289629E-05  3.73630781E-05  0.00000000E+00
 -1.91567868E-03  3.25280749E-06 -1.59993273E-04  0.00000000E+00  2.81448387E-05
  4.22027775E-05 -1.82060539E-04  0.00000000E+00  3.37324402E-03 -9.27503227E-04
 -2.36787646E-05  0.00000000E+00  1.41477364E-04  0.00000000E+00  0.00000000E+00
  2.60206875E-06  8.90079482E-05 -9.01418683E-02 -7.46768530E-02 -4.84963211E-06
  1.30742408E-04  0.00000000E+00 -6.52382492E-04  9.17849147E-05  2.61187826E-04
  0.00000000E+00  4.94866920E-04  2.27971829E-04 -2.64785334E-04  0.00000000E+00
 -3.42484225E-03 -1.09502717E-03  1.31545338E-03  0.00000000E+00  3.20873806E-05
  0.00000000E+00  0.00000000E+00 -1.55022178E-05  1.72279874E-04  3.15625002E-01
  2.61399472E-01  3.49292063E-05 -3.91690081E-06  0.00000000E+00  2.56806117E-03
  3.20487478E-04  1.32902358E-04  0.00000000E+00 -5.23011758E-04 -1.64526300E-04