X=COOH                                                                  
SP        RMP2-FC                                                     6-311++G(d,p)       
Number of atoms                            I               15
Info1-9                                    I   N=           9
          25          24           0           0           0         110
           1           2           1
Charge                                     I                0
Multiplicity                               I                1
Number of electrons                        I               64
Number of alpha electrons                  I               32
Number of beta electrons                   I               32
Number of basis functions                  I              240
Number of independent functions            I              240
Number of point charges in /Mol/           I                0
Number of translation vectors              I                0
Atomic numbers                             I   N=          15
           6           6           6           6           6           6
           6           1           1           1           1           1
           8           8           1
Nuclear charges                            R   N=          15
  6.00000000E+00  6.00000000E+00  6.00000000E+00  6.00000000E+00  6.00000000E+00
  6.00000000E+00  6.00000000E+00  1.00000000E+00  1.00000000E+00  1.00000000E+00
  1.00000000E+00  1.00000000E+00  8.00000000E+00  8.00000000E+00  1.00000000E+00
Current cartesian coordinates              R   N=          45
 -1.82200591E+00 -3.76708590E+00  2.02329689E-16 -2.12660897E+00 -1.15481164E+00
 -1.56953895E-16  1.40560353E-17  4.19033542E-01 -5.08091111E-17  2.42375518E+00
 -6.40331810E-01  4.16116501E-16  2.71788727E+00 -3.25069933E+00  7.73706629E-16
  5.95651126E-01 -4.81602185E+00  6.67139107E-16 -2.17184335E-01  3.21972672E+00
 -4.20731143E-16  4.04489832E+00  6.08484256E-01  4.91084379E-16  4.59628828E+00
 -4.06683804E+00  1.13498225E-15  8.26335664E-01 -6.85190696E+00  9.46211135E-16
 -3.46890979E+00 -4.98473093E+00  1.19984773E-16 -3.99692384E+00 -3.28806678E-01
 -5.18296611E-16  1.54472639E+00  4.67351760E+00 -3.50959064E-16 -2.65018972E+00
  4.03865844E+00 -8.59795230E-16 -2.58693870E+00  5.86752783E+00 -1.07271825E-15
Force Field                                I                0
Int Atom Types                             I   N=          15
           0           0           0           0           0           0
           0           0           0           0           0           0
           0           0           0
MM charges                                 R   N=          15
  0.00000000E+00  0.00000000E+00  0.00000000E+00  0.00000000E+00  0.00000000E+00
  0.00000000E+00  0.00000000E+00  0.00000000E+00  0.00000000E+00  0.00000000E+00
  0.00000000E+00  0.00000000E+00  0.00000000E+00  0.00000000E+00  0.00000000E+00
Integer atomic weights                     I   N=          15
          12          12          12          12          12          12
          12           1           1           1           1           1
          16          16           1
Real atomic weights                        R   N=          15
  1.20000000E+01  1.20000000E+01  1.20000000E+01  1.20000000E+01  1.20000000E+01
  1.20000000E+01  1.20000000E+01  1.00782504E+00  1.00782504E+00  1.00782504E+00
  1.00782504E+00  1.00782504E+00  1.59949146E+01  1.59949146E+01  1.00782504E+00
Atom fragment info                         I   N=          15
           0           0           0           0           0           0
           0           0           0           0           0           0
           0           0           0
Atom residue num                           I   N=          15
           0           0           0           0           0           0
           0           0           0           0           0           0
           0           0           0
Nuclear spins                              I   N=          15
           0           0           0           0           0           0
           0           1           1           1           1           1
           0           0           1
Nuclear ZEff                               R   N=          15
 -3.60000000E+00 -3.60000000E+00 -3.60000000E+00 -3.60000000E+00 -3.60000000E+00
 -3.60000000E+00 -3.60000000E+00 -1.00000000E+00 -1.00000000E+00 -1.00000000E+00
 -1.00000000E+00 -1.00000000E+00 -5.60000000E+00 -5.60000000E+00 -1.00000000E+00
Nuclear QMom                               R   N=          15
  0.00000000E+00  0.00000000E+00  0.00000000E+00  0.00000000E+00  0.00000000E+00
  0.00000000E+00  0.00000000E+00  0.00000000E+00  0.00000000E+00  0.00000000E+00
  0.00000000E+00  0.00000000E+00  0.00000000E+00  0.00000000E+00  0.00000000E+00
Nuclear GFac                               R   N=          15
  0.00000000E+00  0.00000000E+00  0.00000000E+00  0.00000000E+00  0.00000000E+00
  0.00000000E+00  0.00000000E+00  2.79284600E+00  2.79284600E+00  2.79284600E+00
  2.79284600E+00  2.79284600E+00  0.00000000E+00  0.00000000E+00  2.79284600E+00
MicOpt                                     I   N=          15
          -1          -1          -1          -1          -1          -1
          -1          -1          -1          -1          -1          -1
          -1          -1          -1
Number of contracted shells                I               84
Number of primitive shells                 I              159
Pure/Cartesian d shells                    I                0
Pure/Cartesian f shells                    I                0
Highest angular momentum                   I                2
Largest degree of contraction              I                6
Shell types                                I   N=          84
           0          -1          -1          -1          -1          -2
           0          -1          -1          -1          -1          -2
           0          -1          -1          -1          -1          -2
           0          -1          -1          -1          -1          -2
           0          -1          -1          -1          -1          -2
           0          -1          -1          -1          -1          -2
           0          -1          -1          -1          -1          -2
           0           0           0           0           1           0
           0           0           0           1           0           0
           0           0           1           0           0           0
           0           1           0           0           0           0
           1           0          -1          -1          -1          -1
          -2           0          -1          -1          -1          -1
          -2           0           0           0           0           1
Number of primitives per shell             I   N=          84
           6           3           1           1           1           1
           6           3           1           1           1           1
           6           3           1           1           1           1
           6           3           1           1           1           1
           6           3           1           1           1           1
           6           3           1           1           1           1
           6           3           1           1           1           1
           3           1           1           1           1           3
           1           1           1           1           3           1
           1           1           1           3           1           1
           1           1           3           1           1           1
           1           6           3           1           1           1
           1           6           3           1           1           1
           1           3           1           1           1           1
Shell to atom map                          I   N=          84
           1           1           1           1           1           1
           2           2           2           2           2           2
           3           3           3           3           3           3
           4           4           4           4           4           4
           5           5           5           5           5           5
           6           6           6           6           6           6
           7           7           7           7           7           7
           8           8           8           8           8           9
           9           9           9           9          10          10
          10          10          10          11          11          11
          11          11          12          12          12          12
          12          13          13          13          13          13
          13          14          14          14          14          14
          14          15          15          15          15          15
Primitive exponents                        R   N=         159
  4.56324000E+03  6.82024000E+02  1.54973000E+02  4.44553000E+01  1.30290000E+01
  1.82773000E+00  2.09642000E+01  4.80331000E+00  1.45933000E+00  4.83456000E-01
  1.45585000E-01  4.38000000E-02  6.26000000E-01  4.56324000E+03  6.82024000E+02
  1.54973000E+02  4.44553000E+01  1.30290000E+01  1.82773000E+00  2.09642000E+01
  4.80331000E+00  1.45933000E+00  4.83456000E-01  1.45585000E-01  4.38000000E-02
  6.26000000E-01  4.56324000E+03  6.82024000E+02  1.54973000E+02  4.44553000E+01
  1.30290000E+01  1.82773000E+00  2.09642000E+01  4.80331000E+00  1.45933000E+00
  4.83456000E-01  1.45585000E-01  4.38000000E-02  6.26000000E-01  4.56324000E+03
  6.82024000E+02  1.54973000E+02  4.44553000E+01  1.30290000E+01  1.82773000E+00
  2.09642000E+01  4.80331000E+00  1.45933000E+00  4.83456000E-01  1.45585000E-01
  4.38000000E-02  6.26000000E-01  4.56324000E+03  6.82024000E+02  1.54973000E+02
  4.44553000E+01  1.30290000E+01  1.82773000E+00  2.09642000E+01  4.80331000E+00
  1.45933000E+00  4.83456000E-01  1.45585000E-01  4.38000000E-02  6.26000000E-01
  4.56324000E+03  6.82024000E+02  1.54973000E+02  4.44553000E+01  1.30290000E+01
  1.82773000E+00  2.09642000E+01  4.80331000E+00  1.45933000E+00  4.83456000E-01
  1.45585000E-01  4.38000000E-02  6.26000000E-01  4.56324000E+03  6.82024000E+02
  1.54973000E+02  4.44553000E+01  1.30290000E+01  1.82773000E+00  2.09642000E+01
  4.80331000E+00  1.45933000E+00  4.83456000E-01  1.45585000E-01  4.38000000E-02
  6.26000000E-01  3.38650000E+01  5.09479000E+00  1.15879000E+00  3.25840000E-01
  1.02741000E-01  3.60000000E-02  7.50000000E-01  3.38650000E+01  5.09479000E+00
  1.15879000E+00  3.25840000E-01  1.02741000E-01  3.60000000E-02  7.50000000E-01
  3.38650000E+01  5.09479000E+00  1.15879000E+00  3.25840000E-01  1.02741000E-01
  3.60000000E-02  7.50000000E-01  3.38650000E+01  5.09479000E+00  1.15879000E+00
  3.25840000E-01  1.02741000E-01  3.60000000E-02  7.50000000E-01  3.38650000E+01
  5.09479000E+00  1.15879000E+00  3.25840000E-01  1.02741000E-01  3.60000000E-02
  7.50000000E-01  8.58850000E+03  1.29723000E+03  2.99296000E+02  8.73771000E+01
  2.56789000E+01  3.74004000E+00  4.21175000E+01  9.62837000E+00  2.85332000E+00
  9.05661000E-01  2.55611000E-01  8.45000000E-02  1.29200000E+00  8.58850000E+03
  1.29723000E+03  2.99296000E+02  8.73771000E+01  2.56789000E+01  3.74004000E+00
  4.21175000E+01  9.62837000E+00  2.85332000E+00  9.05661000E-01  2.55611000E-01
  8.45000000E-02  1.29200000E+00  3.38650000E+01  5.09479000E+00  1.15879000E+00
  3.25840000E-01  1.02741000E-01  3.60000000E-02  7.50000000E-01
Contraction coefficients                   R   N=         159
  1.96665025E-03  1.52306019E-02  7.61269097E-02  2.60801033E-01  6.16462078E-01
  2.21006028E-01  1.14660081E-01  9.19999648E-01 -3.03068213E-03  1.00000000E+00
  1.00000000E+00  1.00000000E+00  1.00000000E+00  1.96665025E-03  1.52306019E-02
  7.61269097E-02  2.60801033E-01  6.16462078E-01  2.21006028E-01  1.14660081E-01
  9.19999648E-01 -3.03068213E-03  1.00000000E+00  1.00000000E+00  1.00000000E+00
  1.00000000E+00  1.96665025E-03  1.52306019E-02  7.61269097E-02  2.60801033E-01
  6.16462078E-01  2.21006028E-01  1.14660081E-01  9.19999648E-01 -3.03068213E-03
  1.00000000E+00  1.00000000E+00  1.00000000E+00  1.00000000E+00  1.96665025E-03
  1.52306019E-02  7.61269097E-02  2.60801033E-01  6.16462078E-01  2.21006028E-01
  1.14660081E-01  9.19999648E-01 -3.03068213E-03  1.00000000E+00  1.00000000E+00
  1.00000000E+00  1.00000000E+00  1.96665025E-03  1.52306019E-02  7.61269097E-02
  2.60801033E-01  6.16462078E-01  2.21006028E-01  1.14660081E-01  9.19999648E-01
 -3.03068213E-03  1.00000000E+00  1.00000000E+00  1.00000000E+00  1.00000000E+00
  1.96665025E-03  1.52306019E-02  7.61269097E-02  2.60801033E-01  6.16462078E-01
  2.21006028E-01  1.14660081E-01  9.19999648E-01 -3.03068213E-03  1.00000000E+00
  1.00000000E+00  1.00000000E+00  1.00000000E+00  1.96665025E-03  1.52306019E-02
  7.61269097E-02  2.60801033E-01  6.16462078E-01  2.21006028E-01  1.14660081E-01
  9.19999648E-01 -3.03068213E-03  1.00000000E+00  1.00000000E+00  1.00000000E+00
  1.00000000E+00  2.54938145E-02  1.90373109E-01  8.52161486E-01  1.00000000E+00
  1.00000000E+00  1.00000000E+00  1.00000000E+00  2.54938145E-02  1.90373109E-01
  8.52161486E-01  1.00000000E+00  1.00000000E+00  1.00000000E+00  1.00000000E+00
  2.54938145E-02  1.90373109E-01  8.52161486E-01  1.00000000E+00  1.00000000E+00
  1.00000000E+00  1.00000000E+00  2.54938145E-02  1.90373109E-01  8.52161486E-01
  1.00000000E+00  1.00000000E+00  1.00000000E+00  1.00000000E+00  2.54938145E-02
  1.90373109E-01  8.52161486E-01  1.00000000E+00  1.00000000E+00  1.00000000E+00
  1.00000000E+00  1.89515008E-03  1.43859006E-02  7.07320031E-02  2.40001011E-01
  5.94797026E-01  2.80802012E-01  1.13889012E-01  9.20811101E-01 -3.27447036E-03
  1.00000000E+00  1.00000000E+00  1.00000000E+00  1.00000000E+00  1.89515008E-03
  1.43859006E-02  7.07320031E-02  2.40001011E-01  5.94797026E-01  2.80802012E-01
  1.13889012E-01  9.20811101E-01 -3.27447036E-03  1.00000000E+00  1.00000000E+00
  1.00000000E+00  1.00000000E+00  2.54938145E-02  1.90373109E-01  8.52161486E-01
  1.00000000E+00  1.00000000E+00  1.00000000E+00  1.00000000E+00
P(S=P) Contraction coefficients            R   N=         159
  0.00000000E+00  0.00000000E+00  0.00000000E+00  0.00000000E+00  0.00000000E+00
  0.00000000E+00  4.02486927E-02  2.37593957E-01  8.15853851E-01  1.00000000E+00
  1.00000000E+00  1.00000000E+00  0.00000000E+00  0.00000000E+00  0.00000000E+00
  0.00000000E+00  0.00000000E+00  0.00000000E+00  0.00000000E+00  4.02486927E-02
  2.37593957E-01  8.15853851E-01  1.00000000E+00  1.00000000E+00  1.00000000E+00
  0.00000000E+00  0.00000000E+00  0.00000000E+00  0.00000000E+00  0.00000000E+00
  0.00000000E+00  0.00000000E+00  4.02486927E-02  2.37593957E-01  8.15853851E-01
  1.00000000E+00  1.00000000E+00  1.00000000E+00  0.00000000E+00  0.00000000E+00
  0.00000000E+00  0.00000000E+00  0.00000000E+00  0.00000000E+00  0.00000000E+00
  4.02486927E-02  2.37593957E-01  8.15853851E-01  1.00000000E+00  1.00000000E+00
  1.00000000E+00  0.00000000E+00  0.00000000E+00  0.00000000E+00  0.00000000E+00
  0.00000000E+00  0.00000000E+00  0.00000000E+00  4.02486927E-02  2.37593957E-01
  8.15853851E-01  1.00000000E+00  1.00000000E+00  1.00000000E+00  0.00000000E+00
  0.00000000E+00  0.00000000E+00  0.00000000E+00  0.00000000E+00  0.00000000E+00
  0.00000000E+00  4.02486927E-02  2.37593957E-01  8.15853851E-01  1.00000000E+00
  1.00000000E+00  1.00000000E+00  0.00000000E+00  0.00000000E+00  0.00000000E+00
  0.00000000E+00  0.00000000E+00  0.00000000E+00  0.00000000E+00  4.02486927E-02
  2.37593957E-01  8.15853851E-01  1.00000000E+00  1.00000000E+00  1.00000000E+00
  0.00000000E+00  0.00000000E+00  0.00000000E+00  0.00000000E+00  0.00000000E+00
  0.00000000E+00  0.00000000E+00  0.00000000E+00  0.00000000E+00  0.00000000E+00
  0.00000000E+00  0.00000000E+00  0.00000000E+00  0.00000000E+00  0.00000000E+00
  0.00000000E+00  0.00000000E+00  0.00000000E+00  0.00000000E+00  0.00000000E+00
  0.00000000E+00  0.00000000E+00  0.00000000E+00  0.00000000E+00  0.00000000E+00
  0.00000000E+00  0.00000000E+00  0.00000000E+00  0.00000000E+00  0.00000000E+00
  0.00000000E+00  0.00000000E+00  0.00000000E+00  0.00000000E+00  0.00000000E+00
  0.00000000E+00  0.00000000E+00  0.00000000E+00  0.00000000E+00  0.00000000E+00
  0.00000000E+00  0.00000000E+00  3.65113974E-02  2.37152983E-01  8.19701941E-01
  1.00000000E+00  1.00000000E+00  1.00000000E+00  0.00000000E+00  0.00000000E+00
  0.00000000E+00  0.00000000E+00  0.00000000E+00  0.00000000E+00  0.00000000E+00
  3.65113974E-02  2.37152983E-01  8.19701941E-01  1.00000000E+00  1.00000000E+00
  1.00000000E+00  0.00000000E+00  0.00000000E+00  0.00000000E+00  0.00000000E+00
  0.00000000E+00  0.00000000E+00  0.00000000E+00  0.00000000E+00
Coordinates of each shell                  R   N=         252
 -1.82200738E+00 -3.76708520E+00  6.88908849E-32 -1.82200738E+00 -3.76708520E+00
  6.88908849E-32 -1.82200738E+00 -3.76708520E+00  6.88908849E-32 -1.82200738E+00
 -3.76708520E+00  6.88908849E-32 -1.82200738E+00 -3.76708520E+00  6.88908849E-32
 -1.82200738E+00 -3.76708520E+00  6.88908849E-32 -2.12660953E+00 -1.15481083E+00
  4.04466287E-32 -2.12660953E+00 -1.15481083E+00  4.04466287E-32 -2.12660953E+00
 -1.15481083E+00  4.04466287E-32 -2.12660953E+00 -1.15481083E+00  4.04466287E-32
 -2.12660953E+00 -1.15481083E+00  4.04466287E-32 -2.12660953E+00 -1.15481083E+00
  4.04466287E-32 -7.09542628E-33  4.19033601E-01 -5.16498790E-33 -7.09542628E-33
  4.19033601E-01 -5.16498790E-33 -7.09542628E-33  4.19033601E-01 -5.16498790E-33
 -7.09542628E-33  4.19033601E-01 -5.16498790E-33 -7.09542628E-33  4.19033601E-01
 -5.16498790E-33 -7.09542628E-33  4.19033601E-01 -5.16498790E-33  2.42375481E+00
 -6.40332605E-01 -2.19823758E-32  2.42375481E+00 -6.40332605E-01 -2.19823758E-32
  2.42375481E+00 -6.40332605E-01 -2.19823758E-32  2.42375481E+00 -6.40332605E-01
 -2.19823758E-32  2.42375481E+00 -6.40332605E-01 -2.19823758E-32  2.42375481E+00
 -6.40332605E-01 -2.19823758E-32  2.71788598E+00 -3.25070023E+00  6.56744273E-33
  2.71788598E+00 -3.25070023E+00  6.56744273E-33  2.71788598E+00 -3.25070023E+00
  6.56744273E-33  2.71788598E+00 -3.25070023E+00  6.56744273E-33  2.71788598E+00
 -3.25070023E+00  6.56744273E-33  2.71788598E+00 -3.25070023E+00  6.56744273E-33
  5.95649281E-01 -4.81602200E+00  5.20201101E-32  5.95649281E-01 -4.81602200E+00
  5.20201101E-32  5.95649281E-01 -4.81602200E+00  5.20201101E-32  5.95649281E-01
 -4.81602200E+00  5.20201101E-32  5.95649281E-01 -4.81602200E+00  5.20201101E-32
  5.95649281E-01 -4.81602200E+00  5.20201101E-32 -2.17183348E-01  3.21972686E+00
 -3.70092061E-32 -2.17183348E-01  3.21972686E+00 -3.70092061E-32 -2.17183348E-01
  3.21972686E+00 -3.70092061E-32 -2.17183348E-01  3.21972686E+00 -3.70092061E-32
 -2.17183348E-01  3.21972686E+00 -3.70092061E-32 -2.17183348E-01  3.21972686E+00
 -3.70092061E-32  4.04489838E+00  6.08482890E-01 -5.73573525E-32  4.04489838E+00
  6.08482890E-01 -5.73573525E-32  4.04489838E+00  6.08482890E-01 -5.73573525E-32
  4.04489838E+00  6.08482890E-01 -5.73573525E-32  4.04489838E+00  6.08482890E-01
 -5.73573525E-32  4.59628670E+00 -4.06683960E+00 -6.52593934E-33  4.59628670E+00
 -4.06683960E+00 -6.52593934E-33  4.59628670E+00 -4.06683960E+00 -6.52593934E-33
  4.59628670E+00 -4.06683960E+00 -6.52593934E-33  4.59628670E+00 -4.06683960E+00
 -6.52593934E-33  8.26333102E-01 -6.85190719E+00  7.42709349E-32  8.26333102E-01
 -6.85190719E+00  7.42709349E-32  8.26333102E-01 -6.85190719E+00  7.42709349E-32
  8.26333102E-01 -6.85190719E+00  7.42709349E-32  8.26333102E-01 -6.85190719E+00
  7.42709349E-32 -3.46891169E+00 -4.98472965E+00  1.04199174E-31 -3.46891169E+00
 -4.98472965E+00  1.04199174E-31 -3.46891169E+00 -4.98472965E+00  1.04199174E-31
 -3.46891169E+00 -4.98472965E+00  1.04199174E-31 -3.46891169E+00 -4.98472965E+00
  1.04199174E-31 -3.99692410E+00 -3.28805211E-01  5.33187303E-32 -3.99692410E+00
 -3.28805211E-01  5.33187303E-32 -3.99692410E+00 -3.28805211E-01  5.33187303E-32
 -3.99692410E+00 -3.28805211E-01  5.33187303E-32 -3.99692410E+00 -3.28805211E-01
  5.33187303E-32  1.54472789E+00  4.67351712E+00 -7.66457873E-32  1.54472789E+00
  4.67351712E+00 -7.66457873E-32  1.54472789E+00  4.67351712E+00 -7.66457873E-32
  1.54472789E+00  4.67351712E+00 -7.66457873E-32  1.54472789E+00  4.67351712E+00
 -7.66457873E-32  1.54472789E+00  4.67351712E+00 -7.66457873E-32 -2.65018845E+00
  4.03865943E+00 -1.71142262E-32 -2.65018845E+00  4.03865943E+00 -1.71142262E-32
 -2.65018845E+00  4.03865943E+00 -1.71142262E-32 -2.65018845E+00  4.03865943E+00
 -1.71142262E-32 -2.65018845E+00  4.03865943E+00 -1.71142262E-32 -2.65018845E+00
  4.03865943E+00 -1.71142262E-32 -2.58693678E+00  5.86752880E+00 -4.04364186E-32
 -2.58693678E+00  5.86752880E+00 -4.04364186E-32 -2.58693678E+00  5.86752880E+00
 -4.04364186E-32 -2.58693678E+00  5.86752880E+00 -4.04364186E-32 -2.58693678E+00
  5.86752880E+00 -4.04364186E-32
Constraint Structure                       R   N=          45
 -1.82200738E+00 -3.76708520E+00  6.88908849E-32 -2.12660953E+00 -1.15481083E+00
  4.04466287E-32 -7.09542628E-33  4.19033601E-01 -5.16498790E-33  2.42375481E+00
 -6.40332605E-01 -2.19823758E-32  2.71788598E+00 -3.25070023E+00  6.56744273E-33
  5.95649281E-01 -4.81602200E+00  5.20201101E-32 -2.17183348E-01  3.21972686E+00
 -3.70092061E-32  4.04489838E+00  6.08482890E-01 -5.73573525E-32  4.59628670E+00
 -4.06683960E+00 -6.52593934E-33  8.26333102E-01 -6.85190719E+00  7.42709349E-32
 -3.46891169E+00 -4.98472965E+00  1.04199174E-31 -3.99692410E+00 -3.28805211E-01
  5.33187303E-32  1.54472789E+00  4.67351712E+00 -7.66457873E-32 -2.65018845E+00
  4.03865943E+00 -1.71142262E-32 -2.58693678E+00  5.86752880E+00 -4.04364186E-32
Num ILSW                                   I              100
ILSW                                       I   N=         100
           0           0           0           0           2           0
           0           0           0           0           0          -1
           0           0           0           0           0           0
           0           0           0           0           0           0
           1           0           0           0           0           0
           0           0      100000           0          -1           0
           0           0           0           0           0           0
           0           0           0           1           0           0
           0           0           1           0           0           0
           0           0           4          40           0           0
           0           0           0           0           0           0
           0           0           0           0           0           0
           0           0           0           0           0           0
           0           0           0           0           0           0
           0           0           0           0           0           0
           0           0           0           0           0           0
           0           0           0           0
Num RLSW                                   I               40
RLSW                                       R   N=          40
  1.00000000E+00  1.00000000E+00  1.00000000E+00  1.00000000E+00  1.00000000E+00
  0.00000000E+00  0.00000000E+00  1.00000000E+00  0.00000000E+00  0.00000000E+00
  0.00000000E+00  0.00000000E+00  1.00000000E+00  0.00000000E+00  0.00000000E+00
  0.00000000E+00  0.00000000E+00  1.00000000E+00  0.00000000E+00  0.00000000E+00
  0.00000000E+00  0.00000000E+00  1.00000000E+00  0.00000000E+00  0.00000000E+00
  0.00000000E+00  0.00000000E+00  1.00000000E+00  0.00000000E+00  0.00000000E+00
  0.00000000E+00  0.00000000E+00  0.00000000E+00  0.00000000E+00  0.00000000E+00
  0.00000000E+00  0.00000000E+00  0.00000000E+00  1.00000000E+00  1.00000000E+00
MxBond                                     I                3
NBond                                      I   N=          15
           3           3           3           3           3           3
           3           1           1           1           1           1
           1           2           1
IBond                                      I   N=          45
           2           6          11           1           3          12
           2           4           7           3           5           8
           4           6           9           1           5          10
           3          13          14           4           0           0
           5           0           0           6           0           0
           1           0           0           2           0           0
           7           0           0           7          15           0
          14           0           0
RBond                                      R   N=          45
  1.50000000E+00  1.50000000E+00  1.00000000E+00  1.50000000E+00  1.50000000E+00
  1.00000000E+00  1.50000000E+00  1.50000000E+00  1.00000000E+00  1.50000000E+00
  1.50000000E+00  1.00000000E+00  1.50000000E+00  1.50000000E+00  1.00000000E+00
  1.50000000E+00  1.50000000E+00  1.00000000E+00  1.00000000E+00  2.00000000E+00
  1.50000000E+00  1.00000000E+00  0.00000000E+00  0.00000000E+00  1.00000000E+00
  0.00000000E+00  0.00000000E+00  1.00000000E+00  0.00000000E+00  0.00000000E+00
  1.00000000E+00  0.00000000E+00  0.00000000E+00  1.00000000E+00  0.00000000E+00
  0.00000000E+00  2.00000000E+00  0.00000000E+00  0.00000000E+00  1.50000000E+00
  1.00000000E+00  0.00000000E+00  1.00000000E+00  0.00000000E+00  0.00000000E+00
Virial Ratio                               R      2.001273843922556E+00
SCF Energy                                 R     -4.184317355290772E+02
MP2 Energy                                 R     -4.197814667890485E+02
Total Energy                               R     -4.197814667890485E+02
Post-SCF wavefunction norm                 R      1.204165802952478E+00
RMS Density                                R      8.794809466608043E-09
External E-field                           R   N=          35
  0.00000000E+00  0.00000000E+00  0.00000000E+00  0.00000000E+00  0.00000000E+00
  0.00000000E+00  0.00000000E+00  0.00000000E+00  0.00000000E+00  0.00000000E+00
  0.00000000E+00  0.00000000E+00  0.00000000E+00  0.00000000E+00  0.00000000E+00
  0.00000000E+00  0.00000000E+00  0.00000000E+00  0.00000000E+00  0.00000000E+00
  0.00000000E+00  0.00000000E+00  0.00000000E+00  0.00000000E+00  0.00000000E+00
  0.00000000E+00  0.00000000E+00  0.00000000E+00  0.00000000E+00  0.00000000E+00
  0.00000000E+00  0.00000000E+00  0.00000000E+00  0.00000000E+00  0.00000000E+00
IOpCl                                      I                0
IROHF                                      I                0
Alpha Orbital Energies                     R   N=         240
 -2.06155851E+01 -2.05524255E+01 -1.13976982E+01 -1.12615707E+01 -1.12596721E+01
 -1.12595977E+01 -1.12571899E+01 -1.12507161E+01 -1.12500411E+01 -1.47015559E+00
 -1.36588713E+00 -1.17400192E+00 -1.05333887E+00 -1.03432513E+00 -9.03704166E-01
 -8.47463519E-01 -8.06787517E-01 -7.35709057E-01 -7.08951469E-01 -6.79774100E-01
 -6.43333946E-01 -6.36430636E-01 -6.30766501E-01 -6.07555107E-01 -5.89896354E-01
 -5.30709727E-01 -5.19986767E-01 -5.10317953E-01 -4.87894793E-01 -4.60449838E-01
 -3.56976280E-01 -3.51787559E-01  3.61949516E-02  4.59501987E-02  4.97456531E-02
  6.15265537E-02  6.69420194E-02  7.39046606E-02  8.38387909E-02  1.01501440E-01
  1.04371752E-01  1.22575085E-01  1.28491678E-01  1.38943098E-01  1.48594327E-01
  1.53979132E-01  1.63939938E-01  1.70468820E-01  1.72604596E-01  1.74910381E-01
  1.81489384E-01  1.88517820E-01  1.96937635E-01  2.07568885E-01  2.09525673E-01
  2.12856356E-01  2.19758625E-01  2.21186201E-01  2.22386525E-01  2.36411547E-01
  2.41013228E-01  2.44003073E-01  2.60804572E-01  2.74210401E-01  2.92354370E-01
  2.95522496E-01  3.11231357E-01  3.13178968E-01  3.27755774E-01  3.33104119E-01
  3.36899088E-01  3.42462137E-01  3.64126282E-01  3.70937314E-01  3.85380354E-01
  3.96163683E-01  4.05021521E-01  4.07720291E-01  4.20259599E-01  4.24980028E-01
  4.30950795E-01  4.59521138E-01  4.67677564E-01  4.72812035E-01  4.90321645E-01
  5.02520351E-01  5.27076299E-01  5.54246738E-01  5.60745748E-01  6.24060544E-01
  6.43509751E-01  6.69136338E-01  7.06971635E-01  7.10180014E-01  7.11619084E-01
  7.25228500E-01  7.33958022E-01  7.43936540E-01  7.44334874E-01  7.52022907E-01
  7.58140301E-01  7.87552864E-01  8.05096046E-01  8.34374973E-01  8.38281528E-01
  8.42512227E-01  8.83757433E-01  8.91040462E-01  9.32047369E-01  9.40089668E-01
  9.58152541E-01  9.79439491E-01  9.94202748E-01  1.01081585E+00  1.03477700E+00
  1.04194259E+00  1.05625578E+00  1.06983935E+00  1.10430766E+00  1.11466488E+00
  1.11935488E+00  1.13651190E+00  1.18051026E+00  1.18651437E+00  1.19297636E+00
  1.22407557E+00  1.25062357E+00  1.26904621E+00  1.28137649E+00  1.30657796E+00
  1.31501493E+00  1.33589544E+00  1.36602406E+00  1.37325336E+00  1.40090926E+00
  1.44329970E+00  1.46908986E+00  1.51328643E+00  1.51778899E+00  1.53072052E+00
  1.60852124E+00  1.68628179E+00  1.73828074E+00  1.75219416E+00  1.77629105E+00
  1.77756211E+00  1.77986525E+00  1.82141737E+00  1.82593583E+00  1.83313155E+00
  1.86273067E+00  1.90491058E+00  1.90678939E+00  1.95422816E+00  1.97469790E+00
  1.98702107E+00  2.02541034E+00  2.04252984E+00  2.07260097E+00  2.09475814E+00
  2.12795108E+00  2.18082837E+00  2.21884185E+00  2.22069084E+00  2.22428177E+00
  2.23182967E+00  2.24028699E+00  2.26358395E+00  2.31936287E+00  2.33339529E+00
  2.33537358E+00  2.36679971E+00  2.37426126E+00  2.46571018E+00  2.52016422E+00
  2.60228187E+00  2.64644324E+00  2.74160070E+00  2.75360814E+00  2.80410540E+00
  2.81132213E+00  2.88886568E+00  2.93216677E+00  2.95763329E+00  2.98032698E+00
  2.98915302E+00  3.00430732E+00  3.01155352E+00  3.04202780E+00  3.04799204E+00