 Entering Gaussian System, Link 0=g09
 Initial command:
 /apps/software//g09/l1.exe /scratch/itamar/2464.cluster.abaxnet/Gau-28673.inp -scrdir=/scratch/itamar/2464.cluster.abaxnet/
 Entering Link 1 = /apps/software//g09/l1.exe PID=     28674.
  
 Copyright (c) 1988,1990,1992,1993,1995,1998,2003,2009, Gaussian, Inc.
                  All Rights Reserved.
  
 This is part of the Gaussian(R) 09 program.  It is based on
 the Gaussian(R) 03 system (copyright 2003, Gaussian, Inc.),
 the Gaussian(R) 98 system (copyright 1998, Gaussian, Inc.),
 the Gaussian(R) 94 system (copyright 1995, Gaussian, Inc.),
 the Gaussian 92(TM) system (copyright 1992, Gaussian, Inc.),
 the Gaussian 90(TM) system (copyright 1990, Gaussian, Inc.),
 the Gaussian 88(TM) system (copyright 1988, Gaussian, Inc.),
 the Gaussian 86(TM) system (copyright 1986, Carnegie Mellon
 University), and the Gaussian 82(TM) system (copyright 1983,
 Carnegie Mellon University). Gaussian is a federally registered
 trademark of Gaussian, Inc.
  
 This software contains proprietary and confidential information,
 including trade secrets, belonging to Gaussian, Inc.
  
 This software is provided under written license and may be
 used, copied, transmitted, or stored only in accord with that
 written license.
  
 The following legend is applicable only to US Government
 contracts under FAR:
  
                    RESTRICTED RIGHTS LEGEND
  
 Use, reproduction and disclosure by the US Government is
 subject to restrictions as set forth in subparagraphs (a)
 and (c) of the Commercial Computer Software - Restricted
 Rights clause in FAR 52.227-19.
  
 Gaussian, Inc.
 340 Quinnipiac St., Bldg. 40, Wallingford CT 06492
  
  
 ---------------------------------------------------------------
 Warning -- This program may not be used in any manner that
 competes with the business of Gaussian, Inc. or will provide
 assistance to any competitor of Gaussian, Inc.  The licensee
 of this program is prohibited from giving any competitor of
 Gaussian, Inc. access to this program.  By using this program,
 the user acknowledges that Gaussian, Inc. is engaged in the
 business of creating and licensing software in the field of
 computational chemistry and represents and warrants to the
 licensee that it is not a competitor of Gaussian, Inc. and that
 it will not use this program in any manner prohibited above.
 ---------------------------------------------------------------
  

 Cite this work as:
 Gaussian 09, Revision A.02,
 M. J. Frisch, G. W. Trucks, H. B. Schlegel, G. E. Scuseria, 
 M. A. Robb, J. R. Cheeseman, G. Scalmani, V. Barone, B. Mennucci, 
 G. A. Petersson, H. Nakatsuji, M. Caricato, X. Li, H. P. Hratchian, 
 A. F. Izmaylov, J. Bloino, G. Zheng, J. L. Sonnenberg, M. Hada, 
 M. Ehara, K. Toyota, R. Fukuda, J. Hasegawa, M. Ishida, T. Nakajima, 
 Y. Honda, O. Kitao, H. Nakai, T. Vreven, J. A. Montgomery, Jr., 
 J. E. Peralta, F. Ogliaro, M. Bearpark, J. J. Heyd, E. Brothers, 
 K. N. Kudin, V. N. Staroverov, R. Kobayashi, J. Normand, 
 K. Raghavachari, A. Rendell, J. C. Burant, S. S. Iyengar, J. Tomasi, 
 M. Cossi, N. Rega, J. M. Millam, M. Klene, J. E. Knox, J. B. Cross, 
 V. Bakken, C. Adamo, J. Jaramillo, R. Gomperts, R. E. Stratmann, 
 O. Yazyev, A. J. Austin, R. Cammi, C. Pomelli, J. W. Ochterski, 
 R. L. Martin, K. Morokuma, V. G. Zakrzewski, G. A. Voth, 
 P. Salvador, J. J. Dannenberg, S. Dapprich, A. D. Daniels, 
 O. Farkas, J. B. Foresman, J. V. Ortiz, J. Cioslowski, 
 and D. J. Fox, Gaussian, Inc., Wallingford CT, 2009.
 
 ******************************************
 Gaussian 09:  EM64L-G09RevA.02 11-Jun-2009
                 3-Dec-2021 
 ******************************************
 %Mem=3800MB
 %NProcShared=6
 Will use up to    6 processors via shared memory.
 %chk=/home/itamar/Aromaticity-test-set/T6-Subst-Complex-in-Benzene/COOH/cooh.chk
 -----------------------------
 #P MP2/6-311++G** DENSITY=MP2
 -----------------------------
 1/30=1,38=1/1;
 2/12=2,17=6,18=5,40=1/2;
 3/5=4,6=6,7=1111,11=9,16=1,25=1,30=1,71=1/1,2,3;
 4//1;
 5/5=2,38=5/2;
 8/6=4,10=2/1;
 9/15=1,16=-3/6;
 10/5=1,13=10/2;
 6/7=2,8=2,9=2,10=2,22=2/1;
 99/5=1,9=1/99;
 Leave Link    1 at Fri Dec  3 14:32:35 2021, MaxMem=  498073600 cpu:       0.2
 (Enter /apps/software//g09/l101.exe)
 ------
 X=COOH
 ------
 Symbolic Z-matrix:
 Charge =  0 Multiplicity = 1
 6                    -0.96416  -1.99346   0. 
 6                    -1.12535  -0.6111    0. 
 6                     0.        0.22174   0. 
 6                     1.2826   -0.33885   0. 
 6                     1.43824  -1.7202    0. 
 6                     0.31521  -2.54853   0. 
 6                    -0.11493   1.70381   0. 
 1                     2.14047   0.322     0. 
 1                     2.43225  -2.15208   0. 
 1                     0.43728  -3.62587   0. 
 1                    -1.83567  -2.63781   0. 
 1                    -2.11508  -0.174     0. 
 8                     0.81743   2.47312   0. 
 8                    -1.40242   2.13717   0. 
 1                    -1.36895   3.10496   0. 
 
 NAtoms=     15 NQM=     15 NQMF=      0 NMic=      0 NMicF=      0 NTot=     15.
                    Isotopes and Nuclear Properties:
 (Nuclear quadrupole moments (NQMom) in fm**2, nuclear magnetic moments (NMagM)
  in nuclear magnetons)

  Atom         1           2           3           4           5           6           7           8           9          10
 IAtWgt=          12          12          12          12          12          12          12           1           1           1
 AtmWgt=  12.0000000  12.0000000  12.0000000  12.0000000  12.0000000  12.0000000  12.0000000   1.0078250   1.0078250   1.0078250
 NucSpn=           0           0           0           0           0           0           0           1           1           1
 AtZEff=   0.0000000   0.0000000   0.0000000   0.0000000   0.0000000   0.0000000   0.0000000   0.0000000   0.0000000   0.0000000
 NQMom=    0.0000000   0.0000000   0.0000000   0.0000000   0.0000000   0.0000000   0.0000000   0.0000000   0.0000000   0.0000000
 NMagM=    0.0000000   0.0000000   0.0000000   0.0000000   0.0000000   0.0000000   0.0000000   2.7928460   2.7928460   2.7928460

  Atom        11          12          13          14          15
 IAtWgt=           1           1          16          16           1
 AtmWgt=   1.0078250   1.0078250  15.9949146  15.9949146   1.0078250
 NucSpn=           1           1           0           0           1
 AtZEff=   0.0000000   0.0000000   0.0000000   0.0000000   0.0000000
 NQMom=    0.0000000   0.0000000   0.0000000   0.0000000   0.0000000
 NMagM=    2.7928460   2.7928460   0.0000000   0.0000000   2.7928460
 Leave Link  101 at Fri Dec  3 14:32:35 2021, MaxMem=  498073600 cpu:       0.3
 (Enter /apps/software//g09/l202.exe)
                          Input orientation:                          
 ---------------------------------------------------------------------
 Center     Atomic      Atomic             Coordinates (Angstroms)
 Number     Number       Type             X           Y           Z
 ---------------------------------------------------------------------
      1          6           0       -0.964164   -1.993456    0.000000
      2          6           0       -1.125353   -0.611100    0.000000
      3          6           0        0.000000    0.221743    0.000000
      4          6           0        1.282596   -0.338849    0.000000
      5          6           0        1.438244   -1.720196    0.000000
      6          6           0        0.315205   -2.548529    0.000000
      7          6           0       -0.114929    1.703806    0.000000
      8          1           0        2.140468    0.321996    0.000000
      9          1           0        2.432251   -2.152078    0.000000
     10          1           0        0.437278   -3.625873    0.000000
     11          1           0       -1.835668   -2.637806    0.000000
     12          1           0       -2.115081   -0.173997    0.000000
     13          8           0        0.817434    2.473119    0.000000
     14          8           0       -1.402420    2.137166    0.000000
     15          1           0       -1.368949    3.104962    0.000000
 ---------------------------------------------------------------------
                    Distance matrix (angstroms):
                    1          2          3          4          5
     1  C    0.000000
     2  C    1.391722   0.000000
     3  C    2.415930   1.400017   0.000000
     4  C    2.790279   2.423291   1.399756   0.000000
     5  C    2.417899   2.793228   2.416542   1.390088   0.000000
     6  C    1.394594   2.414299   2.788147   2.412163   1.395476
     7  C    3.793540   2.525816   1.486512   2.474978   3.759805
     8  H    3.872991   3.396506   2.142814   1.082894   2.159552
     9  H    3.400117   3.877004   3.398657   2.146976   1.083777
    10  H    2.151470   3.395684   3.872384   3.393978   2.152565
    11  H    1.083839   2.147576   3.398043   3.874116   3.400075
    12  H    2.152915   1.081952   2.151785   3.401674   3.875158
    13  O    4.808782   3.645110   2.395181   2.850182   4.239021
    14  O    4.153806   2.762197   2.373948   3.652391   4.790471
    15  H    5.114462   3.724038   3.191704   4.346323   5.582337
                    6          7          8          9         10
     6  C    0.000000
     7  C    4.274034   0.000000
     8  H    3.401691   2.645036   0.000000
     9  H    2.153847   4.621252   2.491220   0.000000
    10  H    1.084238   5.358210   4.299596   2.480320   0.000000
    11  H    2.152725   4.670175   4.956822   4.295470   2.478419
    12  H    3.397748   2.743493   4.284356   4.958935   4.293016
    13  O    5.046700   1.208778   2.525421   4.898988   6.110828
    14  O    4.990588   1.358468   3.980816   5.753461   6.049554
    15  H    5.899011   1.880373   4.478940   6.487341   6.968974
                   11         12         13         14         15
    11  H    0.000000
    12  H    2.479602   0.000000
    13  O    5.758516   3.950553   0.000000
    14  O    4.794587   2.418545   2.245132   0.000000
    15  H    5.761702   3.362779   2.275851   0.968375   0.000000
 Stoichiometry    C7H6O2
 Framework group  CS[SG(C7H6O2)]
 Deg. of freedom    27
 Full point group                 CS      NOp   2
 Largest Abelian subgroup         CS      NOp   2
 Largest concise Abelian subgroup C1      NOp   1
                         Standard orientation:                         
 ---------------------------------------------------------------------
 Center     Atomic      Atomic             Coordinates (Angstroms)
 Number     Number       Type             X           Y           Z
 ---------------------------------------------------------------------
      1          6           0       -0.964165   -1.993456    0.000000
      2          6           0       -1.125353   -0.611100    0.000000
      3          6           0        0.000000    0.221743    0.000000
      4          6           0        1.282596   -0.338849    0.000000
      5          6           0        1.438243   -1.720196    0.000000
      6          6           0        0.315204   -2.548529    0.000000
      7          6           0       -0.114928    1.703806    0.000000
      8          1           0        2.140468    0.321995    0.000000
      9          1           0        2.432250   -2.152079    0.000000
     10          1           0        0.437277   -3.625873    0.000000
     11          1           0       -1.835669   -2.637805    0.000000
     12          1           0       -2.115081   -0.173996    0.000000
     13          8           0        0.817435    2.473119    0.000000
     14          8           0       -1.402419    2.137167    0.000000
     15          1           0       -1.368948    3.104963    0.000000
 ---------------------------------------------------------------------
 Rotational constants (GHZ):      3.8814349      1.2247225      0.9309703
 Leave Link  202 at Fri Dec  3 14:32:35 2021, MaxMem=  498073600 cpu:       0.0
 (Enter /apps/software//g09/l301.exe)
 Standard basis: 6-311++G(d,p) (5D, 7F)
 Ernie: Thresh=  0.10000D-02 Tol=  0.10000D-05 Strict=F.
 There are   180 symmetry adapted basis functions of A'  symmetry.
 There are    60 symmetry adapted basis functions of A"  symmetry.
 Integral buffers will be    131072 words long.
 Raffenetti 1 integral format.
 Two-electron integral symmetry is turned on.
   240 basis functions,   378 primitive gaussians,   249 cartesian basis functions
    32 alpha electrons       32 beta electrons
       nuclear repulsion energy       404.8986457876 Hartrees.
 IExCor=    0 DFT=F Ex=HF Corr=None ExCW=0 ScaHFX=  1.000000
 ScaDFX=  1.000000  1.000000  1.000000  1.000000 ScalE2=  1.000000  1.000000
 IRadAn=      0 IRanWt=     -1 IRanGd=            0 ICorTp=0
 NAtoms=   15 NActive=   15 NUniq=   15 SFac= 7.50D-01 NAtFMM=   80 NAOKFM=F Big=F
 Leave Link  301 at Fri Dec  3 14:32:35 2021, MaxMem=  498073600 cpu:       0.2
 (Enter /apps/software//g09/l302.exe)
 NPDir=0 NMtPBC=     1 NCelOv=     1 NCel=       1 NClECP=     1 NCelD=      1
         NCelK=      1 NCelE2=     1 NClLst=     1 CellRange=     0.0.
 One-electron integrals computed using PRISM.
 NBasis=   240 RedAO= T  NBF=   180    60
 NBsUse=   240 1.00D-06 NBFU=   180    60
 Leave Link  302 at Fri Dec  3 14:32:36 2021, MaxMem=  498073600 cpu:       1.8
 (Enter /apps/software//g09/l303.exe)
 DipDrv:  MaxL=1.
 Leave Link  303 at Fri Dec  3 14:32:36 2021, MaxMem=  498073600 cpu:       0.3
 (Enter /apps/software//g09/l401.exe)
 Harris functional with IExCor=  205 diagonalized for initial guess.
 ExpMin= 3.60D-02 ExpMax= 8.59D+03 ExpMxC= 1.30D+03 IAcc=3 IRadAn=         0 AccDes= 0.00D+00
 HarFok:  IExCor=  205 AccDes= 0.00D+00 IRadAn=         0 IDoV= 1
 ScaDFX=  1.000000  1.000000  1.000000  1.000000
 FoFCou: FMM=F IPFlag=           0 FMFlag=      100000 FMFlg1=           0
         NFxFlg=           0 DoJE=T BraDBF=F KetDBF=T FulRan=T
         Omega=  0.000000  0.000000  1.000000  0.000000  0.000000 ICntrl=     500 IOpCl=  0
         NMat0=    1 NMatS0=    1 NMatT0=    0 NMatD0=    1 NMtDS0=    0 NMtDT0=    0
         I1Cent=           4 NGrid=           0.
 Petite list used in FoFCou.
 Harris En= -418.886386159747    
 Initial guess orbital symmetries:
       Occupied  (A') (A') (A') (A') (A') (A') (A') (A') (A') (A')
                 (A') (A') (A') (A') (A') (A') (A') (A') (A') (A')
                 (A') (A') (A') (A") (A') (A') (A") (A') (A") (A')
                 (A") (A")
       Virtual   (A") (A") (A") (A') (A') (A') (A") (A') (A') (A')
                 (A") (A') (A') (A") (A') (A") (A') (A') (A') (A')
                 (A') (A') (A") (A') (A') (A") (A') (A') (A') (A')
                 (A") (A') (A') (A") (A') (A') (A') (A') (A') (A')
                 (A") (A') (A') (A') (A') (A') (A") (A') (A') (A')
                 (A') (A') (A') (A') (A') (A') (A') (A') (A') (A')
                 (A') (A") (A') (A') (A') (A") (A') (A") (A") (A')
                 (A") (A') (A') (A") (A') (A") (A') (A') (A') (A')
                 (A') (A') (A') (A') (A') (A') (A') (A') (A') (A")
                 (A') (A") (A') (A") (A') (A") (A") (A') (A") (A")
                 (A') (A') (A") (A') (A') (A') (A") (A') (A') (A')
                 (A') (A") (A') (A') (A") (A') (A") (A") (A') (A')
                 (A') (A') (A') (A") (A") (A") (A') (A') (A') (A")
                 (A") (A') (A') (A') (A') (A') (A') (A") (A') (A")
                 (A') (A') (A') (A") (A") (A') (A') (A') (A') (A')
                 (A") (A') (A") (A') (A') (A") (A") (A') (A') (A')
                 (A') (A") (A') (A') (A") (A') (A') (A") (A') (A')
                 (A") (A") (A') (A') (A") (A') (A') (A') (A") (A')
                 (A') (A') (A') (A') (A') (A') (A') (A') (A') (A')
                 (A') (A') (A') (A") (A") (A') (A') (A') (A') (A')
                 (A') (A') (A') (A') (A') (A') (A') (A')
 The electronic state of the initial guess is 1-A'.
 Leave Link  401 at Fri Dec  3 14:32:37 2021, MaxMem=  498073600 cpu:       4.1
 (Enter /apps/software//g09/l502.exe)
 Closed shell SCF:
 Requested convergence on RMS density matrix=1.00D-08 within 128 cycles.
 Requested convergence on MAX density matrix=1.00D-06.
 Requested convergence on             energy=1.00D-06.
 No special actions if energy rises.
 Using DIIS extrapolation, IDIIS=  1040.
 Integral symmetry usage will be decided dynamically.
 Keep R1 ints in memory in canonical form, NReq=492418339.
 IEnd=      207575 IEndB=      207575 NGot=   498073600 MDV=    13546513
 LenX=    13546513 LenY=    13484071
 Symmetry not used in FoFDir.
 MinBra= 0 MaxBra= 2 Meth= 1.
 IRaf=       0 NMat=   1 IRICut=       1 DoRegI=T DoRafI=F ISym2E= 0 JSym2E=0.

 Cycle   1  Pass 1  IDiag  1:
 E= -418.050736125013    
 DIIS: error= 6.78D-02 at cycle   1 NSaved=   1.
 NSaved= 1 IEnMin= 1 EnMin= -418.050736125013     IErMin= 1 ErrMin= 6.78D-02
 ErrMax= 6.78D-02 EMaxC= 1.00D-01 BMatC= 8.39D-01 BMatP= 8.39D-01
 IDIUse=3 WtCom= 3.22D-01 WtEn= 6.78D-01
 Coeff-Com:  0.100D+01
 Coeff-En:   0.100D+01
 Coeff:      0.100D+01
 Gap=     0.365 Goal=   None    Shift=    0.000
 GapD=    0.365 DampG=1.000 DampE=0.500 DampFc=0.5000 IDamp=-1.
 Damping current iteration by 5.00D-01
 RMSDP=2.12D-02 MaxDP=1.19D+00              OVMax= 1.49D-01

 Cycle   2  Pass 1  IDiag  1:
 E= -418.249234307929     Delta-E=       -0.198498182916 Rises=F Damp=T
 DIIS: error= 2.74D-02 at cycle   2 NSaved=   2.
 NSaved= 2 IEnMin= 2 EnMin= -418.249234307929     IErMin= 2 ErrMin= 2.74D-02
 ErrMax= 2.74D-02 EMaxC= 1.00D-01 BMatC= 1.78D-01 BMatP= 8.39D-01
 IDIUse=3 WtCom= 7.26D-01 WtEn= 2.74D-01
 Coeff-Com: -0.650D+00 0.165D+01
 Coeff-En:   0.000D+00 0.100D+01
 Coeff:     -0.472D+00 0.147D+01
 Gap=     0.396 Goal=   None    Shift=    0.000
 RMSDP=6.85D-03 MaxDP=5.25D-01 DE=-1.98D-01 OVMax= 5.49D-02

 Cycle   3  Pass 1  IDiag  1:
 E= -418.427396327323     Delta-E=       -0.178162019394 Rises=F Damp=F
 DIIS: error= 6.24D-03 at cycle   3 NSaved=   3.
 NSaved= 3 IEnMin= 3 EnMin= -418.427396327323     IErMin= 3 ErrMin= 6.24D-03
 ErrMax= 6.24D-03 EMaxC= 1.00D-01 BMatC= 5.43D-03 BMatP= 1.78D-01
 IDIUse=3 WtCom= 9.38D-01 WtEn= 6.24D-02
 Coeff-Com: -0.167D+00 0.304D+00 0.863D+00
 Coeff-En:   0.000D+00 0.000D+00 0.100D+01
 Coeff:     -0.157D+00 0.285D+00 0.872D+00
 Gap=     0.394 Goal=   None    Shift=    0.000
 RMSDP=2.27D-03 MaxDP=1.52D-01 DE=-1.78D-01 OVMax= 2.20D-02

 Cycle   4  Pass 1  IDiag  1:
 E= -418.431134163444     Delta-E=       -0.003737836121 Rises=F Damp=F
 DIIS: error= 1.82D-03 at cycle   4 NSaved=   4.
 NSaved= 4 IEnMin= 4 EnMin= -418.431134163444     IErMin= 4 ErrMin= 1.82D-03
 ErrMax= 1.82D-03 EMaxC= 1.00D-01 BMatC= 5.94D-04 BMatP= 5.43D-03
 IDIUse=3 WtCom= 9.82D-01 WtEn= 1.82D-02
 Coeff-Com: -0.326D-01 0.470D-01 0.290D+00 0.695D+00
 Coeff-En:   0.000D+00 0.000D+00 0.000D+00 0.100D+01
 Coeff:     -0.320D-01 0.461D-01 0.285D+00 0.701D+00
 Gap=     0.388 Goal=   None    Shift=    0.000
 RMSDP=8.24D-04 MaxDP=5.03D-02 DE=-3.74D-03 OVMax= 5.40D-03

 Cycle   5  Pass 1  IDiag  1:
 E= -418.431652451302     Delta-E=       -0.000518287858 Rises=F Damp=F
 DIIS: error= 7.30D-04 at cycle   5 NSaved=   5.
 NSaved= 5 IEnMin= 5 EnMin= -418.431652451302     IErMin= 5 ErrMin= 7.30D-04
 ErrMax= 7.30D-04 EMaxC= 1.00D-01 BMatC= 3.54D-05 BMatP= 5.94D-04
 IDIUse=3 WtCom= 9.93D-01 WtEn= 7.30D-03
 Coeff-Com:  0.114D-01-0.217D-01-0.568D-01 0.730D-01 0.994D+00
 Coeff-En:   0.000D+00 0.000D+00 0.000D+00 0.000D+00 0.100D+01
 Coeff:      0.113D-01-0.216D-01-0.564D-01 0.725D-01 0.994D+00
 Gap=     0.388 Goal=   None    Shift=    0.000
 RMSDP=2.98D-04 MaxDP=2.76D-02 DE=-5.18D-04 OVMax= 3.38D-03

 Cycle   6  Pass 1  IDiag  1:
 E= -418.431719132565     Delta-E=       -0.000066681263 Rises=F Damp=F
 DIIS: error= 2.31D-04 at cycle   6 NSaved=   6.
 NSaved= 6 IEnMin= 6 EnMin= -418.431719132565     IErMin= 6 ErrMin= 2.31D-04
 ErrMax= 2.31D-04 EMaxC= 1.00D-01 BMatC= 5.19D-06 BMatP= 3.54D-05
 IDIUse=3 WtCom= 9.98D-01 WtEn= 2.31D-03
 Coeff-Com:  0.504D-02-0.817D-02-0.377D-01-0.783D-01 0.104D+00 0.102D+01
 Coeff-En:   0.000D+00 0.000D+00 0.000D+00 0.000D+00 0.000D+00 0.100D+01
 Coeff:      0.502D-02-0.815D-02-0.376D-01-0.781D-01 0.104D+00 0.101D+01
 Gap=     0.388 Goal=   None    Shift=    0.000
 RMSDP=1.03D-04 MaxDP=5.86D-03 DE=-6.67D-05 OVMax= 1.18D-03

 Cycle   7  Pass 1  IDiag  1:
 E= -418.431731927833     Delta-E=       -0.000012795269 Rises=F Damp=F
 DIIS: error= 1.22D-04 at cycle   7 NSaved=   7.
 NSaved= 7 IEnMin= 7 EnMin= -418.431731927833     IErMin= 7 ErrMin= 1.22D-04
 ErrMax= 1.22D-04 EMaxC= 1.00D-01 BMatC= 8.64D-07 BMatP= 5.19D-06
 IDIUse=3 WtCom= 9.99D-01 WtEn= 1.22D-03
 Coeff-Com: -0.619D-03 0.135D-02 0.435D-02-0.212D-01-0.102D+00 0.932D-01
 Coeff-Com:  0.102D+01
 Coeff-En:   0.000D+00 0.000D+00 0.000D+00 0.000D+00 0.000D+00 0.000D+00
 Coeff-En:   0.100D+01
 Coeff:     -0.618D-03 0.135D-02 0.434D-02-0.212D-01-0.102D+00 0.931D-01
 Coeff:      0.102D+01
 Gap=     0.388 Goal=   None    Shift=    0.000
 RMSDP=6.11D-05 MaxDP=6.71D-03 DE=-1.28D-05 OVMax= 6.90D-04

 Cycle   8  Pass 1  IDiag  1:
 E= -418.431734623367     Delta-E=       -0.000002695534 Rises=F Damp=F
 DIIS: error= 6.14D-05 at cycle   8 NSaved=   8.
 NSaved= 8 IEnMin= 8 EnMin= -418.431734623367     IErMin= 8 ErrMin= 6.14D-05
 ErrMax= 6.14D-05 EMaxC= 1.00D-01 BMatC= 1.84D-07 BMatP= 8.64D-07
 IDIUse=1 WtCom= 1.00D+00 WtEn= 0.00D+00
 Coeff-Com: -0.110D-02 0.178D-02 0.900D-02 0.134D-01-0.180D-01-0.212D+00
 Coeff-Com: -0.604D-01 0.127D+01
 Coeff:     -0.110D-02 0.178D-02 0.900D-02 0.134D-01-0.180D-01-0.212D+00
 Coeff:     -0.604D-01 0.127D+01
 Gap=     0.388 Goal=   None    Shift=    0.000
 RMSDP=2.93D-05 MaxDP=2.07D-03 DE=-2.70D-06 OVMax= 5.24D-04

 Cycle   9  Pass 1  IDiag  1:
 E= -418.431735403129     Delta-E=       -0.000000779761 Rises=F Damp=F
 DIIS: error= 3.32D-05 at cycle   9 NSaved=   9.
 NSaved= 9 IEnMin= 9 EnMin= -418.431735403129     IErMin= 9 ErrMin= 3.32D-05
 ErrMax= 3.32D-05 EMaxC= 1.00D-01 BMatC= 2.45D-08 BMatP= 1.84D-07
 IDIUse=1 WtCom= 1.00D+00 WtEn= 0.00D+00
 Coeff-Com: -0.478D-04 0.248D-04 0.610D-03 0.362D-02 0.114D-01-0.337D-01
 Coeff-Com: -0.159D+00 0.175D+00 0.100D+01
 Coeff:     -0.478D-04 0.248D-04 0.610D-03 0.362D-02 0.114D-01-0.337D-01
 Coeff:     -0.159D+00 0.175D+00 0.100D+01
 Gap=     0.388 Goal=   None    Shift=    0.000
 RMSDP=7.76D-06 MaxDP=6.27D-04 DE=-7.80D-07 OVMax= 2.15D-04

 Cycle  10  Pass 1  IDiag  1:
 E= -418.431735501622     Delta-E=       -0.000000098493 Rises=F Damp=F
 DIIS: error= 1.11D-05 at cycle  10 NSaved=  10.
 NSaved=10 IEnMin=10 EnMin= -418.431735501622     IErMin=10 ErrMin= 1.11D-05
 ErrMax= 1.11D-05 EMaxC= 1.00D-01 BMatC= 4.62D-09 BMatP= 2.45D-08
 IDIUse=1 WtCom= 1.00D+00 WtEn= 0.00D+00
 Coeff-Com:  0.201D-03-0.326D-03-0.165D-02-0.274D-02 0.192D-02 0.440D-01
 Coeff-Com:  0.159D-01-0.243D+00-0.717D-01 0.126D+01
 Coeff:      0.201D-03-0.326D-03-0.165D-02-0.274D-02 0.192D-02 0.440D-01
 Coeff:      0.159D-01-0.243D+00-0.717D-01 0.126D+01
 Gap=     0.388 Goal=   None    Shift=    0.000
 RMSDP=4.81D-06 MaxDP=2.96D-04 DE=-9.85D-08 OVMax= 1.19D-04

 Cycle  11  Pass 1  IDiag  1:
 E= -418.431735524599     Delta-E=       -0.000000022977 Rises=F Damp=F
 DIIS: error= 5.81D-06 at cycle  11 NSaved=  11.
 NSaved=11 IEnMin=11 EnMin= -418.431735524599     IErMin=11 ErrMin= 5.81D-06
 ErrMax= 5.81D-06 EMaxC= 1.00D-01 BMatC= 8.85D-10 BMatP= 4.62D-09
 IDIUse=1 WtCom= 1.00D+00 WtEn= 0.00D+00
 Coeff-Com:  0.341D-04-0.462D-04-0.312D-03-0.856D-03-0.198D-02 0.120D-01
 Coeff-Com:  0.266D-01-0.534D-01-0.174D+00 0.155D+00 0.104D+01
 Coeff:      0.341D-04-0.462D-04-0.312D-03-0.856D-03-0.198D-02 0.120D-01
 Coeff:      0.266D-01-0.534D-01-0.174D+00 0.155D+00 0.104D+01
 Gap=     0.388 Goal=   None    Shift=    0.000
 RMSDP=1.91D-06 MaxDP=1.17D-04 DE=-2.30D-08 OVMax= 4.07D-05

 Cycle  12  Pass 1  IDiag  1:
 E= -418.431735528180     Delta-E=       -0.000000003581 Rises=F Damp=F
 DIIS: error= 2.36D-06 at cycle  12 NSaved=  12.
 NSaved=12 IEnMin=12 EnMin= -418.431735528180     IErMin=12 ErrMin= 2.36D-06
 ErrMax= 2.36D-06 EMaxC= 1.00D-01 BMatC= 1.79D-10 BMatP= 8.85D-10
 IDIUse=1 WtCom= 1.00D+00 WtEn= 0.00D+00
 Coeff-Com: -0.488D-04 0.803D-04 0.385D-03 0.773D-03-0.650D-03-0.107D-01
 Coeff-Com: -0.485D-02 0.632D-01 0.860D-02-0.309D+00 0.448D-01 0.121D+01
 Coeff:     -0.488D-04 0.803D-04 0.385D-03 0.773D-03-0.650D-03-0.107D-01
 Coeff:     -0.485D-02 0.632D-01 0.860D-02-0.309D+00 0.448D-01 0.121D+01
 Gap=     0.388 Goal=   None    Shift=    0.000
 RMSDP=9.83D-07 MaxDP=4.83D-05 DE=-3.58D-09 OVMax= 2.35D-05

 Cycle  13  Pass 1  IDiag  1:
 E= -418.431735528996     Delta-E=       -0.000000000815 Rises=F Damp=F
 DIIS: error= 4.20D-07 at cycle  13 NSaved=  13.
 NSaved=13 IEnMin=13 EnMin= -418.431735528996     IErMin=13 ErrMin= 4.20D-07
 ErrMax= 4.20D-07 EMaxC= 1.00D-01 BMatC= 1.99D-11 BMatP= 1.79D-10
 IDIUse=1 WtCom= 1.00D+00 WtEn= 0.00D+00
 Coeff-Com:  0.581D-05-0.100D-04-0.732D-04-0.673D-04 0.365D-03 0.142D-02
 Coeff-Com: -0.264D-02-0.100D-01 0.171D-01 0.716D-01-0.164D+00-0.337D+00
 Coeff-Com:  0.142D+01
 Coeff:      0.581D-05-0.100D-04-0.732D-04-0.673D-04 0.365D-03 0.142D-02
 Coeff:     -0.264D-02-0.100D-01 0.171D-01 0.716D-01-0.164D+00-0.337D+00
 Coeff:      0.142D+01
 Gap=     0.388 Goal=   None    Shift=    0.000
 RMSDP=3.46D-07 MaxDP=2.42D-05 DE=-8.15D-10 OVMax= 6.72D-06

 Cycle  14  Pass 1  IDiag  1:
 E= -418.431735529073     Delta-E=       -0.000000000077 Rises=F Damp=F
 DIIS: error= 1.05D-07 at cycle  14 NSaved=  14.
 NSaved=14 IEnMin=14 EnMin= -418.431735529073     IErMin=14 ErrMin= 1.05D-07
 ErrMax= 1.05D-07 EMaxC= 1.00D-01 BMatC= 1.28D-12 BMatP= 1.99D-11
 IDIUse=1 WtCom= 1.00D+00 WtEn= 0.00D+00
 Coeff-Com:  0.386D-05-0.629D-05-0.368D-04-0.547D-04 0.793D-04 0.931D-03
 Coeff-Com:  0.334D-03-0.556D-02 0.489D-03 0.331D-01-0.129D-01-0.116D+00
 Coeff-Com:  0.101D+00 0.999D+00
 Coeff:      0.386D-05-0.629D-05-0.368D-04-0.547D-04 0.793D-04 0.931D-03
 Coeff:      0.334D-03-0.556D-02 0.489D-03 0.331D-01-0.129D-01-0.116D+00
 Coeff:      0.101D+00 0.999D+00
 Gap=     0.388 Goal=   None    Shift=    0.000
 RMSDP=3.75D-08 MaxDP=1.59D-06 DE=-7.72D-11 OVMax= 8.03D-07

 Cycle  15  Pass 1  IDiag  1:
 E= -418.431735529079     Delta-E=       -0.000000000007 Rises=F Damp=F
 DIIS: error= 2.56D-08 at cycle  15 NSaved=  15.
 NSaved=15 IEnMin=15 EnMin= -418.431735529079     IErMin=15 ErrMin= 2.56D-08
 ErrMax= 2.56D-08 EMaxC= 1.00D-01 BMatC= 1.82D-13 BMatP= 1.28D-12
 IDIUse=1 WtCom= 1.00D+00 WtEn= 0.00D+00
 Coeff-Com: -0.237D-06 0.473D-06 0.323D-05 0.241D-05-0.329D-04-0.517D-04
 Coeff-Com:  0.377D-03 0.285D-03-0.212D-02-0.359D-02 0.156D-01 0.192D-01
 Coeff-Com: -0.153D+00 0.140D+00 0.984D+00
 Coeff:     -0.237D-06 0.473D-06 0.323D-05 0.241D-05-0.329D-04-0.517D-04
 Coeff:      0.377D-03 0.285D-03-0.212D-02-0.359D-02 0.156D-01 0.192D-01
 Coeff:     -0.153D+00 0.140D+00 0.984D+00
 Gap=     0.388 Goal=   None    Shift=    0.000
 RMSDP=1.96D-08 MaxDP=8.99D-07 DE=-6.59D-12 OVMax= 3.72D-07

 Cycle  16  Pass 1  IDiag  1:
 E= -418.431735529077     Delta-E=        0.000000000002 Rises=F Damp=F
 DIIS: error= 1.90D-08 at cycle  16 NSaved=  16.
 NSaved=16 IEnMin=15 EnMin= -418.431735529079     IErMin=16 ErrMin= 1.90D-08
 ErrMax= 1.90D-08 EMaxC= 1.00D-01 BMatC= 1.18D-14 BMatP= 1.82D-13
 IDIUse=1 WtCom= 1.00D+00 WtEn= 0.00D+00
 Coeff-Com: -0.356D-06 0.598D-06 0.334D-05 0.529D-05-0.101D-04-0.852D-04
 Coeff-Com:  0.116D-04 0.489D-03-0.295D-03-0.319D-02 0.279D-02 0.123D-01
 Coeff-Com: -0.247D-01-0.634D-01 0.575D-01 0.102D+01
 Coeff:     -0.356D-06 0.598D-06 0.334D-05 0.529D-05-0.101D-04-0.852D-04
 Coeff:      0.116D-04 0.489D-03-0.295D-03-0.319D-02 0.279D-02 0.123D-01
 Coeff:     -0.247D-01-0.634D-01 0.575D-01 0.102D+01
 Gap=     0.388 Goal=   None    Shift=    0.000
 RMSDP=8.79D-09 MaxDP=8.79D-07 DE= 2.27D-12 OVMax= 1.10D-07

 SCF Done:  E(RHF) =  -418.431735529     A.U. after   16 cycles
             Convg  =    0.8795D-08             -V/T =  2.0013
 KE= 4.178993969221D+02 PE=-1.790138758897D+03 EE= 5.489089806586D+02
 Leave Link  502 at Fri Dec  3 14:33:17 2021, MaxMem=  498073600 cpu:     219.3
 (Enter /apps/software//g09/l801.exe)
 ExpMin= 3.60D-02 ExpMax= 8.59D+03 ExpMxC= 1.30D+03 IAcc=3 IRadAn=         5 AccDes= 0.00D+00
 HarFok:  IExCor=  205 AccDes= 0.00D+00 IRadAn=         5 IDoV=-2
 ScaDFX=  1.000000  1.000000  1.000000  1.000000
 Largest valence mixing into a core orbital is  1.42D-04
 Largest core mixing into a valence orbital is  3.99D-05
 Range of M.O.s used for correlation:    10   240
 NBasis=   240 NAE=    32 NBE=    32 NFC=     9 NFV=     0
 NROrb=    231 NOA=    23 NOB=    23 NVA=   208 NVB=   208

 **** Warning!!: The largest alpha MO coefficient is  0.28322176D+03

 Leave Link  801 at Fri Dec  3 14:33:17 2021, MaxMem=  498073600 cpu:       1.5
 (Enter /apps/software//g09/l906.exe)
 Frozen-core derivative calculation, NFC=   9 NFV=   0.
 FulOut=F Deriv=T AODrv=F NAtomX=    15
   MMem=          66  MDisk=          23 MDiskD=          23
  W3Min=     1912320 MinDsk=     2569133 NBas6D=         249
 NBas2D=       31494    NTT=       31125    LW2=     2040000
    MDV=   497372602 MDiskM=       27631 NBas2p=       29749
 Fully direct method using O(ONN) memory.
 IMap=   1   2   3   4   5   6   7   8   9  10  11  12  13  14  15  16  17  18  19  20
 IMap=  21  22  23  24  25  26  27  28  29  30  31  32
 JobTyp=1 Pass  1:  I=  10 to  18 NPSUse=  6 ParTrn=T ParDer=T DoDerP=T.
 JobTyp=1 Pass  2:  I=  19 to  27 NPSUse=  6 ParTrn=T ParDer=T DoDerP=T.
 JobTyp=1 Pass  3:  I=  28 to  32 NPSUse=  6 ParTrn=T ParDer=T DoDerP=T.
 Spin components of T(2) and E(2):
     alpha-alpha T2 =       0.6316274079D-01 E2=     -0.1821104476D+00
     alpha-beta  T2 =       0.3236897994D+00 E2=     -0.9855103648D+00
     beta-beta   T2 =       0.6316274079D-01 E2=     -0.1821104476D+00
 The integrals were generated   3 times.
 ANorm=    0.1204165803D+01
 E2 =    -0.1349731260D+01 EUMP2 =    -0.41978146678905D+03
 Leave Link  906 at Fri Dec  3 14:34:35 2021, MaxMem=  498073600 cpu:     462.6
 (Enter /apps/software//g09/l1002.exe)
 Minotr:  Closed shell wavefunction.
          Computing MP2/KS-MP2 derivatives.
          Using Z-Vector for PSCF gradient.
          Skipping F1 and S1 gradient terms here.
          Frozen-core window.
          Direct CPHF calculation.
          Differentiating once with respect to electric field.
                with respect to dipole field.
          Electric field/nuclear overlap derivatives assumed to be zero.
          Using symmetry in CPHF.
          Requested convergence is 1.0D-10 RMS, and 1.0D-09 maximum.
          NewPWx=F KeepS1=T KeepF1=T KeepIn=T MapXYZ=F SortEE=F KeepMc=T.
          MDV=     498073476 using IRadAn=       0.
          Keep R1 ints in memory in canonical form, NReq=485220177.
 Symmetry not used in FoFDir.
 MinBra= 0 MaxBra= 2 Meth= 1.
 IRaf=       0 NMat=   1 IRICut=       1 DoRegI=T DoRafI=F ISym2E= 0 JSym2E=0.
          Solving linear equations separately, MaxMat=       0.
          There are     1 degrees of freedom in the 1st order CPHF.  IDoFFX=0.
 LinEq1:  Iter=  0 NonCon=     1 RMS=3.88D-03 Max=9.04D-02
 AX will form     1 AO Fock derivatives at one time.
 LinEq1:  Iter=  1 NonCon=     1 RMS=1.03D-03 Max=1.71D-02
 LinEq1:  Iter=  2 NonCon=     1 RMS=4.46D-04 Max=1.39D-02
 LinEq1:  Iter=  3 NonCon=     1 RMS=2.24D-04 Max=8.06D-03
 LinEq1:  Iter=  4 NonCon=     1 RMS=8.69D-05 Max=2.26D-03
 LinEq1:  Iter=  5 NonCon=     1 RMS=3.09D-05 Max=7.34D-04
 LinEq1:  Iter=  6 NonCon=     1 RMS=1.13D-05 Max=1.96D-04
 LinEq1:  Iter=  7 NonCon=     1 RMS=3.03D-06 Max=4.16D-05
 LinEq1:  Iter=  8 NonCon=     1 RMS=1.04D-06 Max=2.10D-05
 LinEq1:  Iter=  9 NonCon=     1 RMS=3.68D-07 Max=7.61D-06
 LinEq1:  Iter= 10 NonCon=     1 RMS=1.06D-07 Max=2.61D-06
 LinEq1:  Iter= 11 NonCon=     1 RMS=4.22D-08 Max=8.29D-07
 LinEq1:  Iter= 12 NonCon=     1 RMS=1.03D-08 Max=3.63D-07
 LinEq1:  Iter= 13 NonCon=     1 RMS=3.81D-09 Max=1.24D-07
 LinEq1:  Iter= 14 NonCon=     1 RMS=1.72D-09 Max=6.16D-08
 LinEq1:  Iter= 15 NonCon=     1 RMS=4.70D-10 Max=6.96D-09
 LinEq1:  Iter= 16 NonCon=     1 RMS=1.53D-10 Max=2.73D-09
 LinEq1:  Iter= 17 NonCon=     0 RMS=4.80D-11 Max=6.32D-10
 Linear equations converged to 1.000D-10 1.000D-09 after    17 iterations.
 End of Minotr Frequency-dependent properties file   721 does not exist.
 End of Minotr Frequency-dependent properties file   722 does not exist.
 Leave Link 1002 at Fri Dec  3 14:35:19 2021, MaxMem=  498073600 cpu:     242.7
 (Enter /apps/software//g09/l601.exe)
 Copying SCF densities to generalized density rwf, IOpCl= 0 IROHF=0.

 **********************************************************************

            Population analysis using the MP2 density.

 **********************************************************************

 Orbital symmetries:
       Occupied  (A') (A') (A') (A') (A') (A') (A') (A') (A') (A')
                 (A') (A') (A') (A') (A') (A') (A') (A') (A') (A')
                 (A') (A") (A') (A') (A') (A') (A") (A') (A") (A')
                 (A") (A")
       Virtual   (A') (A') (A') (A') (A") (A') (A') (A") (A") (A')
                 (A') (A") (A") (A') (A') (A') (A") (A') (A') (A')
                 (A") (A') (A') (A") (A') (A') (A") (A') (A') (A")
                 (A') (A') (A') (A') (A') (A') (A") (A') (A') (A')
                 (A') (A") (A") (A') (A') (A') (A') (A') (A') (A')
                 (A') (A') (A') (A') (A') (A') (A') (A') (A') (A')
                 (A') (A") (A') (A') (A') (A") (A') (A") (A') (A")
                 (A") (A") (A') (A') (A") (A') (A') (A') (A') (A')
                 (A') (A') (A') (A') (A') (A') (A') (A') (A') (A')
                 (A') (A") (A') (A") (A') (A') (A") (A") (A") (A')
                 (A") (A") (A") (A') (A') (A") (A') (A') (A') (A")
                 (A') (A') (A') (A') (A") (A") (A') (A") (A') (A')
                 (A') (A') (A") (A') (A") (A") (A') (A') (A') (A')
                 (A") (A') (A") (A') (A') (A') (A') (A") (A') (A")
                 (A') (A') (A') (A") (A") (A') (A') (A') (A') (A')
                 (A') (A') (A') (A") (A') (A') (A') (A') (A") (A')
                 (A") (A") (A') (A') (A") (A") (A') (A") (A') (A')
                 (A") (A") (A") (A') (A') (A') (A") (A') (A') (A')
                 (A') (A') (A') (A') (A') (A') (A') (A') (A') (A')
                 (A') (A') (A') (A") (A") (A') (A') (A') (A') (A')
                 (A') (A') (A') (A') (A') (A') (A') (A')
 The electronic state is 1-A'.
 Alpha  occ. eigenvalues --  -20.61559 -20.55243 -11.39770 -11.26157 -11.25967
 Alpha  occ. eigenvalues --  -11.25960 -11.25719 -11.25072 -11.25004  -1.47016
 Alpha  occ. eigenvalues --   -1.36589  -1.17400  -1.05334  -1.03433  -0.90370
 Alpha  occ. eigenvalues --   -0.84746  -0.80679  -0.73571  -0.70895  -0.67977
 Alpha  occ. eigenvalues --   -0.64333  -0.63643  -0.63077  -0.60756  -0.58990
 Alpha  occ. eigenvalues --   -0.53071  -0.51999  -0.51032  -0.48789  -0.46045
 Alpha  occ. eigenvalues --   -0.35698  -0.35179
 Alpha virt. eigenvalues --    0.03619   0.04595   0.04975   0.06153   0.06694
 Alpha virt. eigenvalues --    0.07390   0.08384   0.10150   0.10437   0.12258
 Alpha virt. eigenvalues --    0.12849   0.13894   0.14859   0.15398   0.16394
 Alpha virt. eigenvalues --    0.17047   0.17260   0.17491   0.18149   0.18852
 Alpha virt. eigenvalues --    0.19694   0.20757   0.20953   0.21286   0.21976
 Alpha virt. eigenvalues --    0.22119   0.22239   0.23641   0.24101   0.24400
 Alpha virt. eigenvalues --    0.26080   0.27421   0.29235   0.29552   0.31123
 Alpha virt. eigenvalues --    0.31318   0.32776   0.33310   0.33690   0.34246
 Alpha virt. eigenvalues --    0.36413   0.37094   0.38538   0.39616   0.40502
 Alpha virt. eigenvalues --    0.40772   0.42026   0.42498   0.43095   0.45952
 Alpha virt. eigenvalues --    0.46768   0.47281   0.49032   0.50252   0.52708
 Alpha virt. eigenvalues --    0.55425   0.56075   0.62406   0.64351   0.66914
 Alpha virt. eigenvalues --    0.70697   0.71018   0.71162   0.72523   0.73396
 Alpha virt. eigenvalues --    0.74394   0.74433   0.75202   0.75814   0.78755
 Alpha virt. eigenvalues --    0.80510   0.83437   0.83828   0.84251   0.88376
 Alpha virt. eigenvalues --    0.89104   0.93205   0.94009   0.95815   0.97944
 Alpha virt. eigenvalues --    0.99420   1.01082   1.03478   1.04194   1.05626
 Alpha virt. eigenvalues --    1.06984   1.10431   1.11466   1.11935   1.13651
 Alpha virt. eigenvalues --    1.18051   1.18651   1.19298   1.22408   1.25062
 Alpha virt. eigenvalues --    1.26905   1.28138   1.30658   1.31501   1.33590
 Alpha virt. eigenvalues --    1.36602   1.37325   1.40091   1.44330   1.46909
 Alpha virt. eigenvalues --    1.51329   1.51779   1.53072   1.60852   1.68628
 Alpha virt. eigenvalues --    1.73828   1.75219   1.77629   1.77756   1.77987
 Alpha virt. eigenvalues --    1.82142   1.82594   1.83313   1.86273   1.90491
 Alpha virt. eigenvalues --    1.90679   1.95423   1.97470   1.98702   2.02541
 Alpha virt. eigenvalues --    2.04253   2.07260   2.09476   2.12795   2.18083
 Alpha virt. eigenvalues --    2.21884   2.22069   2.22428   2.23183   2.24029
 Alpha virt. eigenvalues --    2.26358   2.31936   2.33340   2.33537   2.36680
 Alpha virt. eigenvalues --    2.37426   2.46571   2.52016   2.60228   2.64644
 Alpha virt. eigenvalues --    2.74160   2.75361   2.80411   2.81132   2.88887
 Alpha virt. eigenvalues --    2.93217   2.95763   2.98033   2.98915   3.00431
 Alpha virt. eigenvalues --    3.01155   3.04203   3.04799   3.04878   3.07905
 Alpha virt. eigenvalues --    3.16809   3.17716   3.19959   3.21273   3.23761
 Alpha virt. eigenvalues --    3.27835   3.28704   3.31642   3.31842   3.43345
 Alpha virt. eigenvalues --    3.44710   3.47149   3.55698   3.60321   3.63017
 Alpha virt. eigenvalues --    3.70379   3.77374   3.78106   3.79391   3.90387
 Alpha virt. eigenvalues --    3.92669   3.97279   4.02757   4.08788   4.15494
 Alpha virt. eigenvalues --    4.24821   4.39876   4.43861   4.51922   4.56238
 Alpha virt. eigenvalues --    4.58254   4.75741   5.26472   5.51053   5.60513
 Alpha virt. eigenvalues --    5.75224   5.98803   6.19879   6.42070  24.74514
 Alpha virt. eigenvalues --   24.96867  25.10516  25.11214  25.21662  25.25301
 Alpha virt. eigenvalues --   25.34517  51.57364  51.74478
          Condensed to atoms (all electrons):
              1          2          3          4          5          6
     1  C   17.140678 -14.580599   6.650045  -3.064581   4.526225  -5.237454
     2  C  -14.580599  31.524163 -10.278040   1.250185  -4.504232   5.732341
     3  C    6.650045 -10.278040  20.194646  -7.503606   4.627922  -4.129708
     4  C   -3.064581   1.250185  -7.503606  21.954382  -8.636888   3.944263
     5  C    4.526225  -4.504232   4.627922  -8.636888  13.497238  -4.592758
     6  C   -5.237454   5.732341  -4.129708   3.944263  -4.592758  10.772026
     7  C    0.497315  -3.190491  -3.795778  -2.111326   1.052600  -0.456981
     8  H   -0.135507   0.289392  -0.250779   0.866678  -0.406798   0.159727
     9  H    0.063101  -0.021813   0.072905  -0.226173   0.553493  -0.182053
    10  H   -0.276731   0.191304  -0.087109   0.135597  -0.255529   0.606306
    11  H    0.633250  -0.358273   0.119491   0.013874   0.060282  -0.199299
    12  H   -0.573123   1.278865  -0.367850   0.102062  -0.094254   0.158263
    13  O    0.123344  -0.248504   0.005262   0.118011   0.058958  -0.027599
    14  O    0.170276  -0.253429  -0.187284  -0.190785   0.089233  -0.049084
    15  H   -0.028122  -0.031697  -0.111511   0.006897   0.015398  -0.005667
              7          8          9         10         11         12
     1  C    0.497315  -0.135507   0.063101  -0.276731   0.633250  -0.573123
     2  C   -3.190491   0.289392  -0.021813   0.191304  -0.358273   1.278865
     3  C   -3.795778  -0.250779   0.072905  -0.087109   0.119491  -0.367850
     4  C   -2.111326   0.866678  -0.226173   0.135597   0.013874   0.102062
     5  C    1.052600  -0.406798   0.553493  -0.255529   0.060282  -0.094254
     6  C   -0.456981   0.159727  -0.182053   0.606306  -0.199299   0.158263
     7  C   14.035093  -0.286683   0.019729  -0.026349   0.008942  -0.242108
     8  H   -0.286683   0.563596  -0.019947   0.004432  -0.000202   0.007802
     9  H    0.019729  -0.019947   0.550657  -0.016792  -0.000400   0.000181
    10  H   -0.026349   0.004432  -0.016792   0.557098  -0.017295   0.004481
    11  H    0.008942  -0.000202  -0.000400  -0.017295   0.557349  -0.024303
    12  H   -0.242108   0.007802   0.000181   0.004481  -0.024303   0.563582
    13  O    0.087938   0.005037   0.000595  -0.000207   0.001003  -0.007109
    14  O    0.269292  -0.008670   0.001299  -0.000557   0.002515  -0.034484
    15  H    0.183149  -0.001829   0.000203  -0.000181  -0.000144   0.002146
             13         14         15
     1  C    0.123344   0.170276  -0.028122
     2  C   -0.248504  -0.253429  -0.031697
     3  C    0.005262  -0.187284  -0.111511
     4  C    0.118011  -0.190785   0.006897
     5  C    0.058958   0.089233   0.015398
     6  C   -0.027599  -0.049084  -0.005667
     7  C    0.087938   0.269292   0.183149
     8  H    0.005037  -0.008670  -0.001829
     9  H    0.000595   0.001299   0.000203
    10  H   -0.000207  -0.000557  -0.000181
    11  H    0.001003   0.002515  -0.000144
    12  H   -0.007109  -0.034484   0.002146
    13  O    8.328577  -0.142739  -0.026999
    14  O   -0.142739   8.329550   0.203456
    15  H   -0.026999   0.203456   0.498051
 Mulliken atomic charges:
              1
     1  C    0.091884
     2  C   -0.799173
     3  C    1.041393
     4  C   -0.658590
     5  C    0.009108
     6  C   -0.492324
     7  C   -0.044342
     8  H    0.213751
     9  H    0.205015
    10  H    0.181532
    11  H    0.203209
    12  H    0.225849
    13  O   -0.275570
    14  O   -0.198591
    15  H    0.296850
 Sum of Mulliken atomic charges =   0.00000
 Mulliken charges with hydrogens summed into heavy atoms:
              1
     1  C    0.295093
     2  C   -0.573323
     3  C    1.041393
     4  C   -0.444840
     5  C    0.214123
     6  C   -0.310792
     7  C   -0.044342
    13  O   -0.275570
    14  O    0.098259
 Sum of Mulliken charges with hydrogens summed into heavy atoms =   0.00000
 Electronic spatial extent (au):  <R**2>=           1180.5735
 Charge=              0.0000 electrons
 Dipole moment (field-independent basis, Debye):
    X=             -1.0347    Y=             -1.5040    Z=              0.0000  Tot=              1.8255
 Quadrupole moment (field-independent basis, Debye-Ang):
   XX=            -50.0017   YY=            -46.9037   ZZ=            -55.7588
   XY=             -5.6571   XZ=              0.0000   YZ=              0.0000
 Traceless Quadrupole moment (field-independent basis, Debye-Ang):
   XX=              0.8864   YY=              3.9844   ZZ=             -4.8708
   XY=             -5.6571   XZ=              0.0000   YZ=              0.0000
 Octapole moment (field-independent basis, Debye-Ang**2):
  XXX=              0.5660  YYY=             14.4039  ZZZ=              0.0000  XYY=            -22.5253
  XXY=             -2.3291  XXZ=              0.0000  XZZ=             -1.3524  YZZ=             12.2627
  YYZ=              0.0000  XYZ=              0.0000
 Hexadecapole moment (field-independent basis, Debye-Ang**3):
 XXXX=           -392.9610 YYYY=           -956.3834 ZZZZ=            -62.8496 XXXY=             40.3345
 XXXZ=              0.0000 YYYX=            -36.9288 YYYZ=              0.0000 ZZZX=              0.0000
 ZZZY=              0.0000 XXYY=           -230.3592 XXZZ=            -87.5050 YYZZ=           -202.7901
 XXYZ=              0.0000 YYXZ=              0.0000 ZZXY=             16.7586
 N-N= 4.048986457876D+02 E-N=-1.791321741615D+03  KE= 4.195943014258D+02
 Symmetry A'   KE= 4.047360992669D+02
 Symmetry A"   KE= 1.485820215884D+01
 No NMR shielding tensors so no spin-rotation constants.
 Leave Link  601 at Fri Dec  3 14:35:19 2021, MaxMem=  498073600 cpu:       2.7
 (Enter /apps/software//g09/l9999.exe)
 1\1\GINC-DLT06\SP\RMP2-FC\6-311++G(d,p)\C7H6O2\ITAMAR\03-Dec-2021\0\\#
 P MP2/6-311++G** DENSITY=MP2\\X=COOH\\0,1\C,0,-0.964164,-1.993456,0.\C
 ,0,-1.125353,-0.6111,0.\C,0,0.,0.221743,0.\C,0,1.282596,-0.338849,0.\C
 ,0,1.438244,-1.720196,0.\C,0,0.315205,-2.548529,0.\C,0,-0.114929,1.703
 806,0.\H,0,2.140468,0.321996,0.\H,0,2.432251,-2.152078,0.\H,0,0.437278
 ,-3.625873,0.\H,0,-1.835668,-2.637806,0.\H,0,-2.115081,-0.173997,0.\O,
 0,0.817434,2.473119,0.\O,0,-1.40242,2.137166,0.\H,0,-1.368949,3.104962
 ,0.\\Version=EM64L-G09RevA.02\State=1-A'\HF=-418.4317355\MP2=-419.7814
 668\RMSD=8.795e-09\Dipole=-0.4070664,-0.5917089,0.\Quadrupole=0.659032
 6,2.962269,-3.6213016,-4.2059215,0.,0.\PG=CS [SG(C7H6O2)]\\@


 WE MIGHT AS WELL ATTEMPT TO INTRODUCE A NEW PLANET 
 INTO THE SOLAR SYSTEM, OR TO ANNIHILATE ONE ALREADYIN EXISTENCE, 
 AS TO CREATE OR DESTROY A PARTICLE OF HYDROGEN.
 ALL THE CHANGES WE CAN PRODUCE CONSIST IN SEPARATING PARTICLES
 THAT ARE IN A STATE OF ... COMBINATION, AND JOINING 
 THOSE THAT WERE PREVIOUSLY AT A DISTANCE.

                                    -- JOHN DALTON, 1810
 Job cpu time:  0 days  0 hours 15 minutes 36.8 seconds.
 File lengths (MBytes):  RWF=     26 Int=      0 D2E=      0 Chk=      5 Scr=      1
 Normal termination of Gaussian 09 at Fri Dec  3 14:35:20 2021.
