 Entering Gaussian System, Link 0=g09
 Initial command:
 /apps/software//g09/l1.exe /scratch/itamar/2412.cluster.abaxnet/Gau-8953.inp -scrdir=/scratch/itamar/2412.cluster.abaxnet/
 Entering Link 1 = /apps/software//g09/l1.exe PID=      8954.
  
 Copyright (c) 1988,1990,1992,1993,1995,1998,2003,2009, Gaussian, Inc.
                  All Rights Reserved.
  
 This is part of the Gaussian(R) 09 program.  It is based on
 the Gaussian(R) 03 system (copyright 2003, Gaussian, Inc.),
 the Gaussian(R) 98 system (copyright 1998, Gaussian, Inc.),
 the Gaussian(R) 94 system (copyright 1995, Gaussian, Inc.),
 the Gaussian 92(TM) system (copyright 1992, Gaussian, Inc.),
 the Gaussian 90(TM) system (copyright 1990, Gaussian, Inc.),
 the Gaussian 88(TM) system (copyright 1988, Gaussian, Inc.),
 the Gaussian 86(TM) system (copyright 1986, Carnegie Mellon
 University), and the Gaussian 82(TM) system (copyright 1983,
 Carnegie Mellon University). Gaussian is a federally registered
 trademark of Gaussian, Inc.
  
 This software contains proprietary and confidential information,
 including trade secrets, belonging to Gaussian, Inc.
  
 This software is provided under written license and may be
 used, copied, transmitted, or stored only in accord with that
 written license.
  
 The following legend is applicable only to US Government
 contracts under FAR:
  
                    RESTRICTED RIGHTS LEGEND
  
 Use, reproduction and disclosure by the US Government is
 subject to restrictions as set forth in subparagraphs (a)
 and (c) of the Commercial Computer Software - Restricted
 Rights clause in FAR 52.227-19.
  
 Gaussian, Inc.
 340 Quinnipiac St., Bldg. 40, Wallingford CT 06492
  
  
 ---------------------------------------------------------------
 Warning -- This program may not be used in any manner that
 competes with the business of Gaussian, Inc. or will provide
 assistance to any competitor of Gaussian, Inc.  The licensee
 of this program is prohibited from giving any competitor of
 Gaussian, Inc. access to this program.  By using this program,
 the user acknowledges that Gaussian, Inc. is engaged in the
 business of creating and licensing software in the field of
 computational chemistry and represents and warrants to the
 licensee that it is not a competitor of Gaussian, Inc. and that
 it will not use this program in any manner prohibited above.
 ---------------------------------------------------------------
  

 Cite this work as:
 Gaussian 09, Revision A.02,
 M. J. Frisch, G. W. Trucks, H. B. Schlegel, G. E. Scuseria, 
 M. A. Robb, J. R. Cheeseman, G. Scalmani, V. Barone, B. Mennucci, 
 G. A. Petersson, H. Nakatsuji, M. Caricato, X. Li, H. P. Hratchian, 
 A. F. Izmaylov, J. Bloino, G. Zheng, J. L. Sonnenberg, M. Hada, 
 M. Ehara, K. Toyota, R. Fukuda, J. Hasegawa, M. Ishida, T. Nakajima, 
 Y. Honda, O. Kitao, H. Nakai, T. Vreven, J. A. Montgomery, Jr., 
 J. E. Peralta, F. Ogliaro, M. Bearpark, J. J. Heyd, E. Brothers, 
 K. N. Kudin, V. N. Staroverov, R. Kobayashi, J. Normand, 
 K. Raghavachari, A. Rendell, J. C. Burant, S. S. Iyengar, J. Tomasi, 
 M. Cossi, N. Rega, J. M. Millam, M. Klene, J. E. Knox, J. B. Cross, 
 V. Bakken, C. Adamo, J. Jaramillo, R. Gomperts, R. E. Stratmann, 
 O. Yazyev, A. J. Austin, R. Cammi, C. Pomelli, J. W. Ochterski, 
 R. L. Martin, K. Morokuma, V. G. Zakrzewski, G. A. Voth, 
 P. Salvador, J. J. Dannenberg, S. Dapprich, A. D. Daniels, 
 O. Farkas, J. B. Foresman, J. V. Ortiz, J. Cioslowski, 
 and D. J. Fox, Gaussian, Inc., Wallingford CT, 2009.
 
 ******************************************
 Gaussian 09:  EM64L-G09RevA.02 11-Jun-2009
                 3-Dec-2021 
 ******************************************
 %Mem=3800MB
 %NProcShared=6
 Will use up to    6 processors via shared memory.
 %chk=/home/itamar/Aromaticity-test-set/T11-old-T12-Clar-systems/Triphenylene/tri
 .chk
 -----------------------------
 #P MP2/6-311++G** DENSITY=MP2
 -----------------------------
 1/30=1,38=1/1;
 2/12=2,17=6,18=5,40=1/2;
 3/5=4,6=6,7=1111,11=9,16=1,25=1,30=1,71=1/1,2,3;
 4//1;
 5/5=2,38=5/2;
 8/6=4,10=2/1;
 9/15=1,16=-3/6;
 10/5=1,13=10/2;
 6/7=2,8=2,9=2,10=2,22=2/1;
 99/5=1,9=1/99;
 Leave Link    1 at Fri Dec  3 14:30:48 2021, MaxMem=  498073600 cpu:       0.1
 (Enter /apps/software//g09/l101.exe)
 ------------
 Triphenylene
 ------------
 Symbolic Z-matrix:
 Charge =  0 Multiplicity = 1
 6                    -2.43142   2.87942   0. 
 6                    -2.43461   1.49623   0. 
 6                    -1.23732   0.74506   0. 
 6                     0.        1.44432   0. 
 6                    -0.02522   2.85736   0. 
 6                    -1.2117    3.56863   0. 
 6                     2.51274   1.3602    0. 
 6                     1.26393   0.69921   0. 
 6                     1.25087  -0.72243   0. 
 6                    -0.02662  -1.44424   0. 
 6                    -1.25095  -0.72212   0. 
 6                     2.4871   -1.4067    0. 
 6                     3.69649  -0.73475   0. 
 6                     3.70944   0.66576   0. 
 6                    -2.46199  -1.45058   0. 
 6                    -2.48445  -2.83366   0. 
 6                    -1.27793  -3.54529   0. 
 6                    -0.07834  -2.85652   0. 
 1                    -3.37174   3.42382   0. 
 1                    -3.39175   0.98862   0. 
 1                    -1.19321   4.65499   0. 
 1                     2.50555  -2.48994   0. 
 1                     4.62762  -1.29467   0. 
 1                     4.65072   1.20846   0. 
 1                    -3.40918  -0.92477   0. 
 1                    -3.43468  -3.36056   0. 
 1                    -1.27928  -4.63183   0. 
 1                     0.84001  -3.43125   0. 
 1                     2.55198   2.44295   0. 
 1                     0.90381   3.4149    0. 
 
 NAtoms=     30 NQM=     30 NQMF=      0 NMic=      0 NMicF=      0 NTot=     30.
                    Isotopes and Nuclear Properties:
 (Nuclear quadrupole moments (NQMom) in fm**2, nuclear magnetic moments (NMagM)
  in nuclear magnetons)

  Atom         1           2           3           4           5           6           7           8           9          10
 IAtWgt=          12          12          12          12          12          12          12          12          12          12
 AtmWgt=  12.0000000  12.0000000  12.0000000  12.0000000  12.0000000  12.0000000  12.0000000  12.0000000  12.0000000  12.0000000
 NucSpn=           0           0           0           0           0           0           0           0           0           0
 AtZEff=   0.0000000   0.0000000   0.0000000   0.0000000   0.0000000   0.0000000   0.0000000   0.0000000   0.0000000   0.0000000
 NQMom=    0.0000000   0.0000000   0.0000000   0.0000000   0.0000000   0.0000000   0.0000000   0.0000000   0.0000000   0.0000000
 NMagM=    0.0000000   0.0000000   0.0000000   0.0000000   0.0000000   0.0000000   0.0000000   0.0000000   0.0000000   0.0000000

  Atom        11          12          13          14          15          16          17          18          19          20
 IAtWgt=          12          12          12          12          12          12          12          12           1           1
 AtmWgt=  12.0000000  12.0000000  12.0000000  12.0000000  12.0000000  12.0000000  12.0000000  12.0000000   1.0078250   1.0078250
 NucSpn=           0           0           0           0           0           0           0           0           1           1
 AtZEff=   0.0000000   0.0000000   0.0000000   0.0000000   0.0000000   0.0000000   0.0000000   0.0000000   0.0000000   0.0000000
 NQMom=    0.0000000   0.0000000   0.0000000   0.0000000   0.0000000   0.0000000   0.0000000   0.0000000   0.0000000   0.0000000
 NMagM=    0.0000000   0.0000000   0.0000000   0.0000000   0.0000000   0.0000000   0.0000000   0.0000000   2.7928460   2.7928460

  Atom        21          22          23          24          25          26          27          28          29          30
 IAtWgt=           1           1           1           1           1           1           1           1           1           1
 AtmWgt=   1.0078250   1.0078250   1.0078250   1.0078250   1.0078250   1.0078250   1.0078250   1.0078250   1.0078250   1.0078250
 NucSpn=           1           1           1           1           1           1           1           1           1           1
 AtZEff=   0.0000000   0.0000000   0.0000000   0.0000000   0.0000000   0.0000000   0.0000000   0.0000000   0.0000000   0.0000000
 NQMom=    0.0000000   0.0000000   0.0000000   0.0000000   0.0000000   0.0000000   0.0000000   0.0000000   0.0000000   0.0000000
 NMagM=    2.7928460   2.7928460   2.7928460   2.7928460   2.7928460   2.7928460   2.7928460   2.7928460   2.7928460   2.7928460
 Leave Link  101 at Fri Dec  3 14:30:48 2021, MaxMem=  498073600 cpu:       0.1
 (Enter /apps/software//g09/l202.exe)
                          Input orientation:                          
 ---------------------------------------------------------------------
 Center     Atomic      Atomic             Coordinates (Angstroms)
 Number     Number       Type             X           Y           Z
 ---------------------------------------------------------------------
      1          6           0       -2.431423    2.879416    0.000000
      2          6           0       -2.434607    1.496230    0.000000
      3          6           0       -1.237320    0.745059    0.000000
      4          6           0        0.000000    1.444316    0.000000
      5          6           0       -0.025222    2.857357    0.000000
      6          6           0       -1.211696    3.568628    0.000000
      7          6           0        2.512737    1.360197    0.000000
      8          6           0        1.263931    0.699212    0.000000
      9          6           0        1.250869   -0.722429    0.000000
     10          6           0       -0.026624   -1.444243    0.000000
     11          6           0       -1.250945   -0.722123    0.000000
     12          6           0        2.487097   -1.406697    0.000000
     13          6           0        3.696492   -0.734754    0.000000
     14          6           0        3.709438    0.665761    0.000000
     15          6           0       -2.461986   -1.450582    0.000000
     16          6           0       -2.484447   -2.833657    0.000000
     17          6           0       -1.277925   -3.545288    0.000000
     18          6           0       -0.078343   -2.856523    0.000000
     19          1           0       -3.371741    3.423819    0.000000
     20          1           0       -3.391753    0.988623    0.000000
     21          1           0       -1.193214    4.654994    0.000000
     22          1           0        2.505547   -2.489939    0.000000
     23          1           0        4.627616   -1.294671    0.000000
     24          1           0        4.650723    1.208458    0.000000
     25          1           0       -3.409177   -0.924765    0.000000
     26          1           0       -3.434681   -3.360561    0.000000
     27          1           0       -1.279275   -4.631832    0.000000
     28          1           0        0.840006   -3.431249    0.000000
     29          1           0        2.551976    2.442946    0.000000
     30          1           0        0.903806    3.414903    0.000000
 ---------------------------------------------------------------------
                    Distance matrix (angstroms):
                    1          2          3          4          5
     1  C    0.000000
     2  C    1.383190   0.000000
     3  C    2.445682   1.413419   0.000000
     4  C    2.823354   2.435160   1.421239   0.000000
     5  C    2.406302   2.767274   2.435361   1.413266   0.000000
     6  C    1.400981   2.406314   2.823685   2.445590   1.383339
     7  C    5.172306   4.949214   3.800174   2.514145   2.946646
     8  C    4.290563   3.783440   2.501671   1.467209   2.513863
     9  C    5.150977   4.301765   2.888703   2.501891   3.800431
    10  C    4.947432   3.800627   2.501765   2.888682   4.301600
    11  C    3.790067   2.514388   1.467245   2.501664   3.783527
    12  C    6.524002   5.714031   4.301318   3.783375   4.949132
    13  C    7.114321   6.524390   5.150956   4.290967   5.172467
    14  C    6.527667   6.199917   4.947394   3.790261   4.330217
    15  C    4.330106   2.946939   2.514090   3.800238   4.949359
    16  C    5.713319   4.330174   3.789793   4.947073   6.199631
    17  C    6.527433   5.172506   4.290539   5.150654   6.524042
    18  C    6.199837   4.949590   3.783467   4.301552   5.714127
    19  H    1.086542   2.143320   3.425129   3.909868   3.394123
    20  H    2.120691   1.083417   2.168157   3.422228   3.850415
    21  H    2.164680   3.393943   3.910184   3.425232   2.143759
    22  H    7.294083   6.347808   4.947147   4.664346   5.915942
    23  H    8.200795   7.593690   6.209507   5.377442   6.236043
    24  H    7.276599   7.091172   5.906250   4.656700   4.958158
    25  H    3.927823   2.609790   2.739576   4.151510   5.074997
    26  H    6.320114   4.958686   4.656663   5.906257   7.091327
    27  H    7.599098   6.236019   5.377055   6.209357   7.593458
    28  H    7.108216   5.916345   4.664422   4.947398   6.347849
    29  H    5.002477   5.075656   4.152299   2.740409   2.610304
    30  H    3.377943   3.850494   3.422351   2.167966   1.083490
                    6          7          8          9         10
     6  C    0.000000
     7  C    4.329962   0.000000
     8  C    3.789760   1.412946   0.000000
     9  C    4.947464   2.435086   1.421701   0.000000
    10  C    5.151046   3.783284   2.501986   1.467312   0.000000
    11  C    4.290931   4.301321   2.888736   2.501814   1.421415
    12  C    6.199591   2.767013   2.435362   1.412969   2.514001
    13  C    6.527588   2.406262   2.823758   2.445654   3.790114
    14  C    5.713510   1.383595   2.445736   2.823408   4.290720
    15  C    5.172591   5.713873   4.301636   3.783583   2.435370
    16  C    6.527568   6.523822   5.150874   4.290672   2.823361
    17  C    7.114224   6.199428   4.947405   3.789899   2.445433
    18  C    6.524343   4.949184   3.800651   2.514192   1.413227
    19  H    2.164894   6.235833   5.377075   6.209661   5.906593
    20  H    3.377732   5.916170   4.664671   4.947892   4.152461
    21  H    1.086523   4.958806   4.656799   5.906794   6.209801
    22  H    7.108033   3.850143   3.422323   2.167558   2.739593
    23  H    7.599292   3.394265   3.910236   3.424891   4.656643
    24  H    6.319680   2.143364   3.424864   3.909902   5.377211
    25  H    5.001950   6.347450   4.947246   4.664437   3.422210
    26  H    7.277041   7.593243   6.209566   5.377185   3.909876
    27  H    8.200738   7.091105   5.906600   4.656722   3.424888
    28  H    7.294365   5.075035   4.152159   2.739802   2.167773
    29  H    3.928408   1.083460   2.167872   3.422350   4.664699
    30  H    2.121080   2.609689   2.739465   4.151863   4.947424
                   11         12         13         14         15
    11  C    0.000000
    12  C    3.800210   0.000000
    13  C    4.947453   1.383526   0.000000
    14  C    5.150886   2.406076   1.400575   0.000000
    15  C    1.413249   4.949278   6.199940   6.524215   0.000000
    16  C    2.445425   5.172278   6.527588   7.114080   1.383257
    17  C    2.823294   4.330007   5.713486   6.527383   2.406199
    18  C    2.435294   2.946774   4.330275   5.172405   2.767386
    19  H    4.656889   7.593409   8.200832   7.599341   4.958572
    20  H    2.740385   6.348105   7.294741   7.108527   2.610400
    21  H    5.377427   7.091459   7.277267   6.320599   6.236012
    22  H    4.151675   1.083399   2.121090   3.377543   5.075101
    23  H    5.906377   2.143448   1.086508   2.164797   7.091316
    24  H    6.209414   3.394159   2.164863   1.086525   7.593492
    25  H    2.167724   5.915937   7.108209   7.294138   1.083353
    26  H    3.424917   6.235787   7.599243   8.200592   2.143398
    27  H    3.909812   4.958533   6.320243   7.276795   3.393988
    28  H    3.422198   2.609927   3.928180   5.001913   3.850480
    29  H    4.947714   3.850190   3.377528   2.120874   6.348179
    30  H    4.664540   5.074903   5.001874   3.928021   5.916207
                   16         17         18         19         20
    16  C    0.000000
    17  C    1.400755   0.000000
    18  C    2.406213   1.383255   0.000000
    19  H    6.320071   7.276848   7.091485   0.000000
    20  H    3.928489   5.002461   5.075809   2.435278   0.000000
    21  H    7.599156   8.200720   7.593802   2.502353   4.275026
    22  H    5.001818   3.927903   2.609765   8.337568   6.846791
    23  H    7.276669   6.319865   4.958370   9.287296   8.338088
    24  H    8.200570   7.599143   6.236035   8.322725   8.045480
    25  H    2.121083   3.377777   3.850473   4.348745   1.913467
    26  H    1.086542   2.164653   3.393974   6.784672   4.349396
    27  H    2.164688   1.086545   2.143352   8.322976   6.004338
    28  H    3.377737   2.120999   1.083363   8.045543   6.119073
    29  H    7.294388   7.108241   5.916329   6.004376   6.119066
    30  H    7.108077   7.294122   6.347866   4.275556   4.933423
                   21         22         23         24         25
    21  H    0.000000
    22  H    8.045552   0.000000
    23  H    8.323495   2.435537   0.000000
    24  H    6.784557   4.275502   2.503236   0.000000
    25  H    6.003682   6.118311   8.045301   8.337423   0.000000
    26  H    8.323058   6.003690   8.322772   9.287071   2.435930
    27  H    9.287225   4.348860   6.784394   8.323092   4.275375
    28  H    8.337944   1.913137   4.348673   6.004036   4.933358
    29  H    4.349667   4.933103   4.275285   2.434892   6.846665
    30  H    2.436251   6.118230   6.003903   4.348308   6.118377
                   26         27         28         29         30
    26  H    0.000000
    27  H    2.502380   0.000000
    28  H    4.275271   2.435724   0.000000
    29  H    8.337911   8.045556   6.118579   0.000000
    30  H    8.045457   8.337613   6.846449   1.913417   0.000000
 Stoichiometry    C18H12
 Framework group  CS[SG(C18H12)]
 Deg. of freedom    57
 Full point group                 CS      NOp   2
 Largest Abelian subgroup         CS      NOp   2
 Largest concise Abelian subgroup C1      NOp   1
                         Standard orientation:                         
 ---------------------------------------------------------------------
 Center     Atomic      Atomic             Coordinates (Angstroms)
 Number     Number       Type             X           Y           Z
 ---------------------------------------------------------------------
      1          6           0       -2.431423    2.879416    0.000000
      2          6           0       -2.434607    1.496230    0.000000
      3          6           0       -1.237320    0.745059    0.000000
      4          6           0        0.000000    1.444316    0.000000
      5          6           0       -0.025222    2.857357    0.000000
      6          6           0       -1.211696    3.568628    0.000000
      7          6           0        2.512737    1.360197    0.000000
      8          6           0        1.263931    0.699212    0.000000
      9          6           0        1.250869   -0.722429    0.000000
     10          6           0       -0.026624   -1.444243    0.000000
     11          6           0       -1.250945   -0.722123    0.000000
     12          6           0        2.487097   -1.406697    0.000000
     13          6           0        3.696492   -0.734754    0.000000
     14          6           0        3.709438    0.665761    0.000000
     15          6           0       -2.461986   -1.450582    0.000000
     16          6           0       -2.484447   -2.833657    0.000000
     17          6           0       -1.277925   -3.545288    0.000000
     18          6           0       -0.078343   -2.856523    0.000000
     19          1           0       -3.371741    3.423819    0.000000
     20          1           0       -3.391753    0.988623    0.000000
     21          1           0       -1.193214    4.654994    0.000000
     22          1           0        2.505547   -2.489939    0.000000
     23          1           0        4.627616   -1.294671    0.000000
     24          1           0        4.650723    1.208458    0.000000
     25          1           0       -3.409177   -0.924765    0.000000
     26          1           0       -3.434681   -3.360561    0.000000
     27          1           0       -1.279275   -4.631832    0.000000
     28          1           0        0.840006   -3.431249    0.000000
     29          1           0        2.551976    2.442946    0.000000
     30          1           0        0.903806    3.414903    0.000000
 ---------------------------------------------------------------------
 Rotational constants (GHZ):      0.5115768      0.5115571      0.2557835
 Leave Link  202 at Fri Dec  3 14:30:48 2021, MaxMem=  498073600 cpu:       0.0
 (Enter /apps/software//g09/l301.exe)
 Standard basis: 6-311++G(d,p) (5D, 7F)
 Ernie: Thresh=  0.10000D-02 Tol=  0.10000D-05 Strict=F.
 There are   360 symmetry adapted basis functions of A'  symmetry.
 There are   120 symmetry adapted basis functions of A"  symmetry.
 Integral buffers will be    131072 words long.
 Raffenetti 1 integral format.
 Two-electron integral symmetry is turned on.
   480 basis functions,   756 primitive gaussians,   498 cartesian basis functions
    60 alpha electrons       60 beta electrons
       nuclear repulsion energy      1155.5193414440 Hartrees.
 IExCor=    0 DFT=F Ex=HF Corr=None ExCW=0 ScaHFX=  1.000000
 ScaDFX=  1.000000  1.000000  1.000000  1.000000 ScalE2=  1.000000  1.000000
 IRadAn=      0 IRanWt=     -1 IRanGd=            0 ICorTp=0
 NAtoms=   30 NActive=   30 NUniq=   30 SFac= 7.50D-01 NAtFMM=   80 NAOKFM=F Big=F
 Leave Link  301 at Fri Dec  3 14:30:49 2021, MaxMem=  498073600 cpu:       0.1
 (Enter /apps/software//g09/l302.exe)
 NPDir=0 NMtPBC=     1 NCelOv=     1 NCel=       1 NClECP=     1 NCelD=      1
         NCelK=      1 NCelE2=     1 NClLst=     1 CellRange=     0.0.
 One-electron integrals computed using PRISM.
 NBasis=   480 RedAO= T  NBF=   360   120
 NBsUse=   470 1.00D-06 NBFU=   350   120
 Leave Link  302 at Fri Dec  3 14:30:49 2021, MaxMem=  498073600 cpu:       1.5
 (Enter /apps/software//g09/l303.exe)
 DipDrv:  MaxL=1.
 Leave Link  303 at Fri Dec  3 14:30:49 2021, MaxMem=  498073600 cpu:       0.2
 (Enter /apps/software//g09/l401.exe)
 Harris functional with IExCor=  205 diagonalized for initial guess.
 ExpMin= 3.60D-02 ExpMax= 4.56D+03 ExpMxC= 6.82D+02 IAcc=3 IRadAn=         0 AccDes= 0.00D+00
 HarFok:  IExCor=  205 AccDes= 0.00D+00 IRadAn=         0 IDoV= 1
 ScaDFX=  1.000000  1.000000  1.000000  1.000000
 FoFCou: FMM=F IPFlag=           0 FMFlag=      100000 FMFlg1=           0
         NFxFlg=           0 DoJE=T BraDBF=F KetDBF=T FulRan=T
         Omega=  0.000000  0.000000  1.000000  0.000000  0.000000 ICntrl=     500 IOpCl=  0
         NMat0=    1 NMatS0=    1 NMatT0=    0 NMatD0=    1 NMtDS0=    0 NMtDT0=    0
         I1Cent=           4 NGrid=           0.
 Petite list used in FoFCou.
 Harris En= -689.791593962156    
 Initial guess orbital symmetries:
       Occupied  (A') (A') (A') (A') (A') (A') (A') (A') (A') (A')
                 (A') (A') (A') (A') (A') (A') (A') (A') (A') (A')
                 (A') (A') (A') (A') (A') (A') (A') (A') (A') (A')
                 (A') (A') (A') (A') (A') (A') (A') (A') (A') (A')
                 (A') (A') (A') (A') (A') (A") (A') (A') (A') (A')
                 (A") (A") (A') (A') (A") (A") (A") (A") (A") (A")
       Virtual   (A") (A") (A") (A") (A") (A") (A') (A') (A') (A")
                 (A") (A') (A') (A') (A') (A') (A') (A') (A") (A')
                 (A') (A") (A") (A') (A') (A") (A') (A') (A') (A")
                 (A") (A') (A') (A') (A') (A') (A") (A') (A') (A')
                 (A') (A') (A") (A') (A') (A') (A') (A') (A') (A")
                 (A') (A") (A") (A') (A') (A') (A') (A') (A') (A")
                 (A") (A') (A') (A') (A') (A') (A") (A") (A') (A')
                 (A') (A') (A') (A') (A') (A') (A") (A") (A") (A')
                 (A') (A') (A') (A') (A') (A') (A') (A') (A') (A')
                 (A') (A') (A') (A') (A') (A") (A') (A') (A') (A')
                 (A') (A') (A') (A') (A') (A') (A') (A') (A') (A')
                 (A') (A') (A') (A') (A') (A") (A") (A") (A') (A")
                 (A') (A') (A') (A') (A') (A') (A") (A") (A") (A')
                 (A') (A') (A") (A") (A') (A") (A') (A') (A') (A')
                 (A") (A") (A') (A') (A") (A") (A") (A') (A') (A')
                 (A") (A") (A') (A') (A') (A') (A') (A') (A') (A')
                 (A") (A') (A') (A') (A") (A') (A') (A') (A') (A')
                 (A') (A') (A') (A') (A') (A") (A') (A') (A') (A')
                 (A") (A") (A') (A') (A") (A") (A') (A') (A') (A")
                 (A') (A') (A") (A") (A') (A") (A") (A") (A") (A')
                 (A") (A") (A') (A') (A') (A') (A') (A') (A') (A')
                 (A') (A') (A') (A') (A') (A') (A") (A') (A') (A")
                 (A") (A') (A') (A') (A') (A') (A') (A") (A') (A")
                 (A") (A') (A') (A") (A") (A") (A') (A') (A') (A')
                 (A') (A') (A') (A") (A") (A") (A') (A') (A") (A")
                 (A") (A') (A') (A") (A') (A") (A') (A') (A") (A')
                 (A') (A") (A") (A') (A') (A") (A") (A') (A') (A")
                 (A') (A') (A') (A') (A') (A") (A') (A') (A') (A')
                 (A') (A") (A") (A') (A') (A") (A') (A') (A') (A")
                 (A") (A") (A") (A') (A') (A') (A') (A') (A") (A")
                 (A') (A') (A') (A') (A') (A') (A') (A') (A") (A')
                 (A') (A") (A") (A") (A') (A') (A') (A") (A") (A')
                 (A') (A') (A') (A') (A') (A') (A') (A") (A") (A')
                 (A") (A') (A') (A") (A') (A') (A') (A') (A") (A")
                 (A') (A') (A") (A") (A') (A") (A') (A") (A") (A')
                 (A') (A') (A") (A') (A') (A') (A') (A') (A') (A')
                 (A') (A') (A') (A') (A') (A') (A') (A') (A') (A')
                 (A') (A') (A') (A') (A') (A') (A') (A') (A') (A')
                 (A') (A') (A') (A') (A') (A') (A') (A') (A') (A')
                 (A') (A') (A') (A') (A') (A') (A') (A') (A') (A')
                 (A') (A') (A') (A') (A') (A') (A') (A') (A') (A')
 The electronic state of the initial guess is 1-A'.
 Leave Link  401 at Fri Dec  3 14:30:50 2021, MaxMem=  498073600 cpu:       5.9
 (Enter /apps/software//g09/l502.exe)
 Closed shell SCF:
 Requested convergence on RMS density matrix=1.00D-08 within 128 cycles.
 Requested convergence on MAX density matrix=1.00D-06.
 Requested convergence on             energy=1.00D-06.
 No special actions if energy rises.
 Using DIIS extrapolation, IDIIS=  1040.
 Integral symmetry usage will be decided dynamically.
 IEnd=      769010 IEndB=      769010 NGot=   498073600 MDV=   497569733
 LenX=   497569733 LenY=   497321231
 Fock matrices will be formed incrementally for  20 cycles.

 Cycle   1  Pass 0  IDiag  1:
 FoFCou: FMM=F IPFlag=           0 FMFlag=      100000 FMFlg1=           0
         NFxFlg=           0 DoJE=F BraDBF=F KetDBF=F FulRan=T
         Omega=  0.000000  0.000000  1.000000  0.000000  0.000000 ICntrl=       0 IOpCl=  0
         NMat0=    1 NMatS0=    1 NMatT0=    0 NMatD0=    1 NMtDS0=    0 NMtDT0=    0
         I1Cent=           0 NGrid=           0.
 Petite list used in FoFCou.
 E= -688.060261311493    
 DIIS: error= 7.56D-02 at cycle   1 NSaved=   1.
 NSaved= 1 IEnMin= 1 EnMin= -688.060261311493     IErMin= 1 ErrMin= 7.56D-02
 ErrMax= 7.56D-02 EMaxC= 1.00D-01 BMatC= 1.40D+00 BMatP= 1.40D+00
 IDIUse=3 WtCom= 2.44D-01 WtEn= 7.56D-01
 Coeff-Com:  0.100D+01
 Coeff-En:   0.100D+01
 Coeff:      0.100D+01
 Gap=     0.305 Goal=   None    Shift=    0.000
 GapD=    0.305 DampG=1.000 DampE=0.500 DampFc=0.5000 IDamp=-1.
 Damping current iteration by 5.00D-01
 RMSDP=2.27D-02 MaxDP=1.33D+00              OVMax= 1.53D-01

 Cycle   2  Pass 0  IDiag  1:
 RMSU=  7.70D-03    CP:  1.04D+00
 E= -688.443978916272     Delta-E=       -0.383717604778 Rises=F Damp=T
 DIIS: error= 3.23D-02 at cycle   2 NSaved=   2.
 NSaved= 2 IEnMin= 2 EnMin= -688.443978916272     IErMin= 2 ErrMin= 3.23D-02
 ErrMax= 3.23D-02 EMaxC= 1.00D-01 BMatC= 3.26D-01 BMatP= 1.40D+00
 IDIUse=3 WtCom= 6.77D-01 WtEn= 3.23D-01
 Coeff-Com: -0.783D+00 0.178D+01
 Coeff-En:   0.000D+00 0.100D+01
 Coeff:     -0.530D+00 0.153D+01
 Gap=     0.329 Goal=   None    Shift=    0.000
 RMSDP=1.17D-02 MaxDP=8.26D-01 DE=-3.84D-01 OVMax= 4.17D-02

 Cycle   3  Pass 0  IDiag  1:
 RMSU=  2.75D-03    CP:  9.00D-01  1.26D+00
 E= -688.793910431665     Delta-E=       -0.349931515393 Rises=F Damp=F
 DIIS: error= 4.98D-03 at cycle   3 NSaved=   3.
 NSaved= 3 IEnMin= 3 EnMin= -688.793910431665     IErMin= 3 ErrMin= 4.98D-03
 ErrMax= 4.98D-03 EMaxC= 1.00D-01 BMatC= 3.87D-03 BMatP= 3.26D-01
 IDIUse=3 WtCom= 9.50D-01 WtEn= 4.98D-02
 Coeff-Com: -0.116D+00 0.198D+00 0.917D+00
 Coeff-En:   0.000D+00 0.000D+00 0.100D+01
 Coeff:     -0.110D+00 0.188D+00 0.921D+00
 Gap=     0.331 Goal=   None    Shift=    0.000
 RMSDP=2.75D-03 MaxDP=1.36D-01 DE=-3.50D-01 OVMax= 2.02D-02

 Cycle   4  Pass 0  IDiag  1:
 RMSU=  9.35D-04    CP:  8.69D-01  1.20D+00  9.62D-01
 E= -688.797034234252     Delta-E=       -0.003123802587 Rises=F Damp=F
 DIIS: error= 3.19D-03 at cycle   4 NSaved=   4.
 NSaved= 4 IEnMin= 4 EnMin= -688.797034234252     IErMin= 4 ErrMin= 3.19D-03
 ErrMax= 3.19D-03 EMaxC= 1.00D-01 BMatC= 8.87D-04 BMatP= 3.87D-03
 IDIUse=3 WtCom= 9.68D-01 WtEn= 3.19D-02
 Coeff-Com: -0.183D-01 0.191D-01 0.341D+00 0.659D+00
 Coeff-En:   0.000D+00 0.000D+00 0.000D+00 0.100D+01
 Coeff:     -0.177D-01 0.185D-01 0.330D+00 0.669D+00
 Gap=     0.323 Goal=   None    Shift=    0.000
 RMSDP=6.26D-04 MaxDP=2.77D-02 DE=-3.12D-03 OVMax= 9.52D-03

 Cycle   5  Pass 0  IDiag  1:
 RMSU=  3.94D-04    CP:  8.70D-01  1.21D+00  1.02D+00  9.68D-01
 E= -688.797984839080     Delta-E=       -0.000950604828 Rises=F Damp=F
 DIIS: error= 1.00D-03 at cycle   5 NSaved=   5.
 NSaved= 5 IEnMin= 5 EnMin= -688.797984839080     IErMin= 5 ErrMin= 1.00D-03
 ErrMax= 1.00D-03 EMaxC= 1.00D-01 BMatC= 6.08D-05 BMatP= 8.87D-04
 IDIUse=3 WtCom= 9.90D-01 WtEn= 1.00D-02
 Coeff-Com:  0.937D-02-0.179D-01-0.557D-01 0.143D+00 0.921D+00
 Coeff-En:   0.000D+00 0.000D+00 0.000D+00 0.000D+00 0.100D+01
 Coeff:      0.928D-02-0.177D-01-0.551D-01 0.142D+00 0.922D+00
 Gap=     0.325 Goal=   None    Shift=    0.000
 RMSDP=1.28D-04 MaxDP=3.39D-03 DE=-9.51D-04 OVMax= 3.38D-03

 Cycle   6  Pass 0  IDiag  1:
 RMSU=  6.38D-05    CP:  8.70D-01  1.21D+00  1.04D+00  1.00D+00  9.42D-01
 E= -688.798078831931     Delta-E=       -0.000093992850 Rises=F Damp=F
 DIIS: error= 1.56D-04 at cycle   6 NSaved=   6.
 NSaved= 6 IEnMin= 6 EnMin= -688.798078831931     IErMin= 6 ErrMin= 1.56D-04
 ErrMax= 1.56D-04 EMaxC= 1.00D-01 BMatC= 2.22D-06 BMatP= 6.08D-05
 IDIUse=3 WtCom= 9.98D-01 WtEn= 1.56D-03
 Coeff-Com:  0.176D-02-0.240D-02-0.242D-01-0.565D-01-0.693D-02 0.109D+01
 Coeff-En:   0.000D+00 0.000D+00 0.000D+00 0.000D+00 0.000D+00 0.100D+01
 Coeff:      0.176D-02-0.240D-02-0.242D-01-0.564D-01-0.692D-02 0.109D+01
 Gap=     0.325 Goal=   None    Shift=    0.000
 RMSDP=6.63D-05 MaxDP=2.58D-03 DE=-9.40D-05 OVMax= 8.57D-04

 Cycle   7  Pass 0  IDiag  1:
 RMSU=  1.23D-05    CP:  8.70D-01  1.21D+00  1.04D+00  1.03D+00  1.02D+00
                    CP:  1.12D+00
 E= -688.798084844420     Delta-E=       -0.000006012490 Rises=F Damp=F
 DIIS: error= 4.42D-05 at cycle   7 NSaved=   7.
 NSaved= 7 IEnMin= 7 EnMin= -688.798084844420     IErMin= 7 ErrMin= 4.42D-05
 ErrMax= 4.42D-05 EMaxC= 1.00D-01 BMatC= 1.11D-07 BMatP= 2.22D-06
 IDIUse=1 WtCom= 1.00D+00 WtEn= 0.00D+00
 Coeff-Com: -0.572D-03 0.919D-03 0.637D-02 0.648D-02-0.179D-01-0.244D+00
 Coeff-Com:  0.125D+01
 Coeff:     -0.572D-03 0.919D-03 0.637D-02 0.648D-02-0.179D-01-0.244D+00
 Coeff:      0.125D+01
 Gap=     0.325 Goal=   None    Shift=    0.000
 RMSDP=1.94D-05 MaxDP=1.30D-03 DE=-6.01D-06 OVMax= 3.09D-04

 Cycle   8  Pass 0  IDiag  1:
 RMSU=  3.25D-06    CP:  8.70D-01  1.21D+00  1.04D+00  1.03D+00  1.03D+00
                    CP:  1.14D+00  1.25D+00
 E= -688.798085378744     Delta-E=       -0.000000534324 Rises=F Damp=F
 DIIS: error= 1.48D-05 at cycle   8 NSaved=   8.
 NSaved= 8 IEnMin= 8 EnMin= -688.798085378744     IErMin= 8 ErrMin= 1.48D-05
 ErrMax= 1.48D-05 EMaxC= 1.00D-01 BMatC= 2.05D-08 BMatP= 1.11D-07
 IDIUse=1 WtCom= 1.00D+00 WtEn= 0.00D+00
 Coeff-Com: -0.313D-03 0.457D-03 0.391D-02 0.784D-02-0.672D-03-0.176D+00
 Coeff-Com:  0.199D+00 0.966D+00
 Coeff:     -0.313D-03 0.457D-03 0.391D-02 0.784D-02-0.672D-03-0.176D+00
 Coeff:      0.199D+00 0.966D+00
 Gap=     0.325 Goal=   None    Shift=    0.000
 RMSDP=8.74D-06 MaxDP=6.21D-04 DE=-5.34D-07 OVMax= 1.16D-04

 Initial convergence to 1.0D-05 achieved.  Increase integral accuracy.
 Cycle   9  Pass 1  IDiag  1:
 E= -688.798085452129     Delta-E=       -0.000000073384 Rises=F Damp=F
 DIIS: error= 5.92D-06 at cycle   1 NSaved=   1.
 NSaved= 1 IEnMin= 1 EnMin= -688.798085452129     IErMin= 1 ErrMin= 5.92D-06
 ErrMax= 5.92D-06 EMaxC= 1.00D-01 BMatC= 2.29D-09 BMatP= 2.29D-09
 IDIUse=1 WtCom= 1.00D+00 WtEn= 0.00D+00
 Coeff-Com:  0.100D+01
 Coeff:      0.100D+01
 Gap=     0.325 Goal=   None    Shift=    0.000
 RMSDP=8.74D-06 MaxDP=6.21D-04 DE=-7.34D-08 OVMax= 3.04D-05

 Cycle  10  Pass 1  IDiag  1:
 RMSU=  8.15D-07    CP:  1.00D+00
 E= -688.798085459876     Delta-E=       -0.000000007747 Rises=F Damp=F
 DIIS: error= 3.68D-06 at cycle   2 NSaved=   2.
 NSaved= 2 IEnMin= 2 EnMin= -688.798085459876     IErMin= 2 ErrMin= 3.68D-06
 ErrMax= 3.68D-06 EMaxC= 1.00D-01 BMatC= 7.96D-10 BMatP= 2.29D-09
 IDIUse=1 WtCom= 1.00D+00 WtEn= 0.00D+00
 Coeff-Com:  0.202D+00 0.798D+00
 Coeff:      0.202D+00 0.798D+00
 Gap=     0.325 Goal=   None    Shift=    0.000
 RMSDP=9.85D-07 MaxDP=6.31D-05 DE=-7.75D-09 OVMax= 1.63D-05

 Cycle  11  Pass 1  IDiag  1:
 RMSU=  5.41D-07    CP:  1.00D+00  1.27D+00
 E= -688.798085462344     Delta-E=       -0.000000002468 Rises=F Damp=F
 DIIS: error= 2.45D-06 at cycle   3 NSaved=   3.
 NSaved= 3 IEnMin= 3 EnMin= -688.798085462344     IErMin= 3 ErrMin= 2.45D-06
 ErrMax= 2.45D-06 EMaxC= 1.00D-01 BMatC= 2.53D-10 BMatP= 7.96D-10
 IDIUse=1 WtCom= 1.00D+00 WtEn= 0.00D+00
 Coeff-Com: -0.463D+00-0.276D+00 0.174D+01
 Coeff:     -0.463D+00-0.276D+00 0.174D+01
 Gap=     0.325 Goal=   None    Shift=    0.000
 RMSDP=1.25D-06 MaxDP=7.32D-05 DE=-2.47D-09 OVMax= 3.16D-05

 Cycle  12  Pass 1  IDiag  1:
 RMSU=  1.53D-07    CP:  1.00D+00  1.89D+00  1.80D+00
 E= -688.798085464500     Delta-E=       -0.000000002156 Rises=F Damp=F
 DIIS: error= 8.17D-07 at cycle   4 NSaved=   4.
 NSaved= 4 IEnMin= 4 EnMin= -688.798085464500     IErMin= 4 ErrMin= 8.17D-07
 ErrMax= 8.17D-07 EMaxC= 1.00D-01 BMatC= 1.66D-11 BMatP= 2.53D-10
 IDIUse=1 WtCom= 1.00D+00 WtEn= 0.00D+00
 Coeff-Com:  0.766D-01-0.104D-01-0.323D+00 0.126D+01
 Coeff:      0.766D-01-0.104D-01-0.323D+00 0.126D+01
 Gap=     0.325 Goal=   None    Shift=    0.000
 RMSDP=3.35D-07 MaxDP=2.33D-05 DE=-2.16D-09 OVMax= 8.16D-06

 Cycle  13  Pass 1  IDiag  1:
 RMSU=  3.64D-08    CP:  1.00D+00  1.96D+00  1.97D+00  1.53D+00
 E= -688.798085464597     Delta-E=       -0.000000000097 Rises=F Damp=F
 DIIS: error= 3.66D-07 at cycle   5 NSaved=   5.
 NSaved= 5 IEnMin= 5 EnMin= -688.798085464597     IErMin= 5 ErrMin= 3.66D-07
 ErrMax= 3.66D-07 EMaxC= 1.00D-01 BMatC= 6.46D-12 BMatP= 1.66D-11
 IDIUse=1 WtCom= 1.00D+00 WtEn= 0.00D+00
 Coeff-Com:  0.152D+00 0.638D-01-0.580D+00 0.496D+00 0.869D+00
 Coeff:      0.152D+00 0.638D-01-0.580D+00 0.496D+00 0.869D+00
 Gap=     0.325 Goal=   None    Shift=    0.000
 RMSDP=1.41D-07 MaxDP=8.77D-06 DE=-9.73D-11 OVMax= 4.04D-06

 Cycle  14  Pass 1  IDiag  1:
 RMSU=  2.10D-08    CP:  1.00D+00  1.98D+00  1.99D+00  1.87D+00  9.61D-01
 E= -688.798085464618     Delta-E=       -0.000000000021 Rises=F Damp=F
 DIIS: error= 1.29D-07 at cycle   6 NSaved=   6.
 NSaved= 6 IEnMin= 6 EnMin= -688.798085464618     IErMin= 6 ErrMin= 1.29D-07
 ErrMax= 1.29D-07 EMaxC= 1.00D-01 BMatC= 6.49D-13 BMatP= 6.46D-12
 IDIUse=1 WtCom= 1.00D+00 WtEn= 0.00D+00
 Coeff-Com:  0.138D-01 0.141D-01-0.447D-01-0.155D+00 0.144D+00 0.103D+01
 Coeff:      0.138D-01 0.141D-01-0.447D-01-0.155D+00 0.144D+00 0.103D+01
 Gap=     0.325 Goal=   None    Shift=    0.000
 RMSDP=2.62D-08 MaxDP=1.62D-06 DE=-2.07D-11 OVMax= 1.52D-06

 Cycle  15  Pass 1  IDiag  1:
 RMSU=  9.68D-09    CP:  1.00D+00  1.98D+00  2.00D+00  1.93D+00  1.02D+00
                    CP:  1.02D+00
 E= -688.798085464649     Delta-E=       -0.000000000031 Rises=F Damp=F
 DIIS: error= 3.04D-08 at cycle   7 NSaved=   7.
 NSaved= 7 IEnMin= 7 EnMin= -688.798085464649     IErMin= 7 ErrMin= 3.04D-08
 ErrMax= 3.04D-08 EMaxC= 1.00D-01 BMatC= 4.39D-14 BMatP= 6.49D-13
 IDIUse=1 WtCom= 1.00D+00 WtEn= 0.00D+00
 Coeff-Com: -0.170D-01-0.823D-02 0.648D-01-0.427D-01-0.104D+00-0.579D-01
 Coeff-Com:  0.116D+01
 Coeff:     -0.170D-01-0.823D-02 0.648D-01-0.427D-01-0.104D+00-0.579D-01
 Coeff:      0.116D+01
 Gap=     0.325 Goal=   None    Shift=    0.000
 RMSDP=6.88D-09 MaxDP=2.50D-07 DE=-3.14D-11 OVMax= 3.98D-07

 SCF Done:  E(RHF) =  -688.798085465     A.U. after   15 cycles
             Convg  =    0.6877D-08             -V/T =  2.0014
 KE= 6.878334929518D+02 PE=-3.913835894381D+03 EE= 1.381684974521D+03
 Leave Link  502 at Fri Dec  3 14:35:02 2021, MaxMem=  498073600 cpu:    1451.5
 (Enter /apps/software//g09/l801.exe)
 ExpMin= 3.60D-02 ExpMax= 4.56D+03 ExpMxC= 6.82D+02 IAcc=3 IRadAn=         5 AccDes= 0.00D+00
 HarFok:  IExCor=  205 AccDes= 0.00D+00 IRadAn=         5 IDoV=-2
 ScaDFX=  1.000000  1.000000  1.000000  1.000000
 Largest valence mixing into a core orbital is  1.54D-04
 Largest core mixing into a valence orbital is  4.59D-05
 Range of M.O.s used for correlation:    19   470
 NBasis=   480 NAE=    60 NBE=    60 NFC=    18 NFV=     0
 NROrb=    452 NOA=    42 NOB=    42 NVA=   410 NVB=   410

 **** Warning!!: The largest alpha MO coefficient is  0.18877778D+03

 Leave Link  801 at Fri Dec  3 14:35:02 2021, MaxMem=  498073600 cpu:       1.1
 (Enter /apps/software//g09/l906.exe)
 Frozen-core derivative calculation, NFC=  18 NFV=   0.
 FulOut=F Deriv=T AODrv=F NAtomX=    30
   MMem=           8  MDisk=          42 MDiskD=          42
  W3Min=    14043600 MinDsk=    17068403 NBas6D=         498
 NBas2D=      124989    NTT=      124251    LW2=     2040000
    MDV=   495505204 MDiskM=       13763 NBas2p=      107427
 Disk-based method using ON**2 memory for 42 occupieds at a time.
 Estimated scratch disk usage=  9432108534 words.
 IMap=   1   2   3   4   5   6   7   8   9  10  11  12  13  14  15  16  17  18  19  20
 IMap=  21  22  23  24  25  26  27  28  29  30  31  32  33  34  35  36  37  38  39  40
 IMap=  41  42  43  44  45  46  47  48  49  50  51  52  53  54  55  56  57  58  59  60
 Actual    scratch disk usage=  8954907126 words.
 JobTyp=1 Pass  1:  I=  19 to  60 NPSUse=  6 ParTrn=T ParDer=T DoDerP=T.
 Spin components of T(2) and E(2):
     alpha-alpha T2 =       0.1348570930D+00 E2=     -0.3367652647D+00
     alpha-beta  T2 =       0.6599483749D+00 E2=     -0.1787985219D+01
     beta-beta   T2 =       0.1348570930D+00 E2=     -0.3367652647D+00
 The integrals were generated   1 times.
 ANorm=    0.1389122947D+01
 E2 =    -0.2461515749D+01 EUMP2 =    -0.69125960121336D+03
 Leave Link  906 at Fri Dec  3 14:54:07 2021, MaxMem=  498073600 cpu:    5990.1
 (Enter /apps/software//g09/l1002.exe)
 Minotr:  Closed shell wavefunction.
          Computing MP2/KS-MP2 derivatives.
          Using Z-Vector for PSCF gradient.
          Skipping F1 and S1 gradient terms here.
          Frozen-core window.
          Direct CPHF calculation.
          Differentiating once with respect to electric field.
                with respect to dipole field.
          Electric field/nuclear overlap derivatives assumed to be zero.
          Using symmetry in CPHF.
          Requested convergence is 1.0D-10 RMS, and 1.0D-09 maximum.
          NewPWx=F KeepS1=T KeepF1=T KeepIn=T MapXYZ=F SortEE=F KeepMc=T.
          MDV=     498073356 using IRadAn=       0.
          Solving linear equations separately, MaxMat=       0.
          There are     1 degrees of freedom in the 1st order CPHF.  IDoFFX=0.
 Petite list used in FoFDir.
 MinBra= 0 MaxBra= 2 Meth= 1.
 IRaf=       0 NMat=   1 IRICut=       1 DoRegI=T DoRafI=F ISym2E= 1 JSym2E=1.
 LinEq1:  Iter=  0 NonCon=     1 RMS=2.27D-03 Max=6.26D-02
 AX will form     1 AO Fock derivatives at one time.
 LinEq1:  Iter=  1 NonCon=     1 RMS=4.74D-04 Max=1.13D-02
 LinEq1:  Iter=  2 NonCon=     1 RMS=1.60D-04 Max=9.73D-03
 LinEq1:  Iter=  3 NonCon=     1 RMS=7.49D-05 Max=3.21D-03
 LinEq1:  Iter=  4 NonCon=     1 RMS=2.99D-05 Max=1.46D-03
 LinEq1:  Iter=  5 NonCon=     1 RMS=7.58D-06 Max=1.77D-04
 LinEq1:  Iter=  6 NonCon=     1 RMS=1.64D-06 Max=5.27D-05
 LinEq1:  Iter=  7 NonCon=     1 RMS=6.90D-07 Max=3.29D-05
 LinEq1:  Iter=  8 NonCon=     1 RMS=2.81D-07 Max=1.62D-05
 LinEq1:  Iter=  9 NonCon=     1 RMS=6.15D-08 Max=1.87D-06
 LinEq1:  Iter= 10 NonCon=     1 RMS=1.02D-08 Max=2.80D-07
 LinEq1:  Iter= 11 NonCon=     1 RMS=1.20D-09 Max=3.39D-08
 LinEq1:  Iter= 12 NonCon=     1 RMS=2.47D-10 Max=1.36D-08
 LinEq1:  Iter= 13 NonCon=     1 RMS=1.55D-10 Max=8.79D-09
 LinEq1:  Iter= 14 NonCon=     1 RMS=5.59D-11 Max=2.08D-09
 LinEq1:  Iter= 15 NonCon=     0 RMS=1.73D-11 Max=7.55D-10
 Linear equations converged to 1.000D-10 1.000D-09 after    15 iterations.
 End of Minotr Frequency-dependent properties file   721 does not exist.
 End of Minotr Frequency-dependent properties file   722 does not exist.
 Leave Link 1002 at Fri Dec  3 14:59:09 2021, MaxMem=  498073600 cpu:    1774.3
 (Enter /apps/software//g09/l601.exe)
 Copying SCF densities to generalized density rwf, IOpCl= 0 IROHF=0.

 **********************************************************************

            Population analysis using the MP2 density.

 **********************************************************************

 Orbital symmetries:
       Occupied  (A') (A') (A') (A') (A') (A') (A') (A') (A') (A')
                 (A') (A') (A') (A') (A') (A') (A') (A') (A') (A')
                 (A') (A') (A') (A') (A') (A') (A') (A') (A') (A')
                 (A') (A') (A') (A') (A') (A') (A') (A') (A') (A')
                 (A') (A') (A') (A') (A') (A") (A') (A') (A') (A')
                 (A") (A") (A') (A') (A") (A") (A") (A") (A") (A")
       Virtual   (A') (A') (A') (A') (A') (A') (A') (A") (A") (A")
                 (A') (A') (A') (A') (A') (A") (A") (A") (A") (A")
                 (A') (A') (A') (A") (A") (A") (A') (A') (A') (A')
                 (A') (A") (A') (A') (A') (A') (A') (A') (A') (A')
                 (A") (A") (A") (A') (A') (A") (A") (A") (A') (A')
                 (A') (A') (A") (A") (A') (A') (A") (A') (A') (A')
                 (A') (A') (A") (A") (A') (A') (A') (A') (A') (A')
                 (A') (A") (A") (A') (A') (A") (A') (A') (A') (A')
                 (A') (A') (A') (A') (A') (A') (A') (A') (A') (A')
                 (A') (A') (A') (A") (A') (A') (A') (A') (A') (A')
                 (A') (A') (A') (A') (A') (A') (A') (A') (A') (A')
                 (A') (A') (A") (A') (A') (A") (A") (A") (A') (A')
                 (A') (A') (A') (A") (A") (A') (A') (A') (A") (A')
                 (A") (A") (A') (A') (A") (A') (A') (A') (A") (A")
                 (A') (A') (A') (A") (A") (A") (A') (A') (A") (A")
                 (A') (A') (A') (A') (A') (A') (A') (A') (A') (A')
                 (A') (A') (A') (A") (A') (A') (A') (A') (A') (A')
                 (A') (A") (A') (A') (A') (A') (A') (A') (A') (A')
                 (A') (A') (A') (A') (A") (A') (A') (A") (A") (A")
                 (A") (A') (A') (A") (A") (A") (A') (A') (A") (A")
                 (A") (A') (A') (A") (A') (A') (A") (A") (A') (A')
                 (A') (A') (A') (A') (A') (A") (A') (A") (A") (A')
                 (A') (A') (A') (A') (A') (A') (A') (A') (A") (A")
                 (A") (A") (A") (A") (A') (A') (A') (A') (A') (A')
                 (A') (A') (A') (A") (A") (A") (A") (A") (A') (A')
                 (A') (A") (A') (A') (A') (A") (A") (A') (A') (A')
                 (A") (A") (A') (A') (A") (A') (A') (A') (A") (A")
                 (A') (A') (A') (A') (A") (A") (A') (A') (A') (A')
                 (A') (A") (A") (A") (A') (A') (A') (A') (A') (A")
                 (A") (A") (A") (A') (A') (A') (A') (A') (A") (A')
                 (A") (A') (A') (A') (A') (A') (A') (A') (A') (A')
                 (A') (A') (A') (A') (A") (A') (A') (A') (A') (A')
                 (A") (A") (A') (A') (A') (A') (A') (A') (A") (A')
                 (A') (A") (A") (A') (A') (A') (A") (A") (A") (A")
                 (A') (A") (A") (A') (A") (A") (A') (A') (A") (A")
                 (A") (A") (A') (A') (A') (A') (A') (A') (A') (A')
                 (A') (A') (A') (A') (A') (A') (A') (A') (A') (A')
                 (A') (A') (A') (A') (A') (A') (A') (A') (A') (A')
                 (A') (A') (A') (A') (A') (A') (A') (A') (A') (A')
                 (A') (A') (A') (A') (A') (A') (A') (A') (A') (A')
                 (A') (A') (A') (A') (A') (A') (A') (A') (A') (A')
 The electronic state is 1-A'.
 Alpha  occ. eigenvalues --  -11.25643 -11.25601 -11.25600 -11.25502 -11.25502
 Alpha  occ. eigenvalues --  -11.25455 -11.24198 -11.24197 -11.24196 -11.24162
 Alpha  occ. eigenvalues --  -11.24160 -11.24160 -11.24070 -11.24069 -11.24068
 Alpha  occ. eigenvalues --  -11.23991 -11.23990 -11.23988  -1.19635  -1.14952
 Alpha  occ. eigenvalues --   -1.14950  -1.07381  -1.05255  -1.05253  -1.00012
 Alpha  occ. eigenvalues --   -0.98599  -0.98596  -0.87421  -0.85765  -0.85762
 Alpha  occ. eigenvalues --   -0.80554  -0.80548  -0.76485  -0.73678  -0.68400
 Alpha  occ. eigenvalues --   -0.68399  -0.67066  -0.65017  -0.65015  -0.60433
 Alpha  occ. eigenvalues --   -0.60431  -0.59457  -0.59455  -0.58711  -0.58673
 Alpha  occ. eigenvalues --   -0.55631  -0.53936  -0.51785  -0.51660  -0.51656
 Alpha  occ. eigenvalues --   -0.49665  -0.49664  -0.47181  -0.47177  -0.39640
 Alpha  occ. eigenvalues --   -0.37750  -0.37747  -0.32059  -0.28812  -0.28807
 Alpha virt. eigenvalues --    0.03713   0.04215   0.04215   0.05217   0.05217
 Alpha virt. eigenvalues --    0.06637   0.06839   0.07296   0.07300   0.07582
 Alpha virt. eigenvalues --    0.08811   0.08811   0.11626   0.11657   0.11657
 Alpha virt. eigenvalues --    0.12107   0.12767   0.12768   0.14078   0.14082
 Alpha virt. eigenvalues --    0.14306   0.14380   0.14381   0.14930   0.16014
 Alpha virt. eigenvalues --    0.16015   0.16828   0.17412   0.17413   0.17741
 Alpha virt. eigenvalues --    0.17741   0.18010   0.19047   0.19642   0.19643
 Alpha virt. eigenvalues --    0.19769   0.19980   0.21075   0.21076   0.21100
 Alpha virt. eigenvalues --    0.21965   0.22192   0.22194   0.22620   0.22620
 Alpha virt. eigenvalues --    0.22757   0.23862   0.23862   0.24467   0.24916
 Alpha virt. eigenvalues --    0.25827   0.25827   0.25983   0.25984   0.26916
 Alpha virt. eigenvalues --    0.26916   0.27277   0.27411   0.27412   0.28834
 Alpha virt. eigenvalues --    0.28836   0.28938   0.31360   0.31361   0.31722
 Alpha virt. eigenvalues --    0.31766   0.31766   0.33827   0.33827   0.34847
 Alpha virt. eigenvalues --    0.35235   0.35564   0.35565   0.36381   0.36384
 Alpha virt. eigenvalues --    0.37120   0.37517   0.39691   0.39697   0.40549
 Alpha virt. eigenvalues --    0.40681   0.41582   0.41583   0.42353   0.42355
 Alpha virt. eigenvalues --    0.42479   0.42995   0.42997   0.43387   0.45515
 Alpha virt. eigenvalues --    0.45517   0.46371   0.46373   0.46422   0.46790
 Alpha virt. eigenvalues --    0.47922   0.48587   0.49372   0.49373   0.50826
 Alpha virt. eigenvalues --    0.51965   0.51970   0.55613   0.55614   0.55892
 Alpha virt. eigenvalues --    0.55892   0.62648   0.62653   0.64135   0.66288
 Alpha virt. eigenvalues --    0.68285   0.68939   0.70296   0.71659   0.71664
 Alpha virt. eigenvalues --    0.72532   0.72532   0.74560   0.75060   0.75063
 Alpha virt. eigenvalues --    0.75238   0.75241   0.75290   0.76399   0.76401
 Alpha virt. eigenvalues --    0.76793   0.76793   0.77699   0.78452   0.79811
 Alpha virt. eigenvalues --    0.80487   0.80489   0.80563   0.80564   0.80676
 Alpha virt. eigenvalues --    0.84254   0.84255   0.84363   0.85592   0.85593
 Alpha virt. eigenvalues --    0.85995   0.87778   0.87778   0.87866   0.87870
 Alpha virt. eigenvalues --    0.89801   0.90753   0.93044   0.93156   0.93156
 Alpha virt. eigenvalues --    0.93542   0.93543   0.96841   0.96849   0.98814
 Alpha virt. eigenvalues --    0.98820   1.00812   1.01465   1.02269   1.02272
 Alpha virt. eigenvalues --    1.03696   1.03699   1.03889   1.04203   1.05600
 Alpha virt. eigenvalues --    1.06242   1.06245   1.06405   1.09152   1.09156
 Alpha virt. eigenvalues --    1.11850   1.13632   1.13847   1.14694   1.14699
 Alpha virt. eigenvalues --    1.15355   1.17227   1.17229   1.17767   1.18630
 Alpha virt. eigenvalues --    1.18636   1.19334   1.19334   1.19421   1.19492
 Alpha virt. eigenvalues --    1.21605   1.21608   1.24172   1.24173   1.26063
 Alpha virt. eigenvalues --    1.26066   1.26743   1.28452   1.28782   1.31801
 Alpha virt. eigenvalues --    1.31803   1.31873   1.31881   1.35734   1.36009
 Alpha virt. eigenvalues --    1.36010   1.36375   1.36378   1.36450   1.39510
 Alpha virt. eigenvalues --    1.39512   1.41047   1.41049   1.46035   1.46038
 Alpha virt. eigenvalues --    1.54147   1.55525   1.58217   1.58222   1.69289
 Alpha virt. eigenvalues --    1.70427   1.71577   1.73437   1.73440   1.74240
 Alpha virt. eigenvalues --    1.74243   1.76337   1.77409   1.77412   1.79317
 Alpha virt. eigenvalues --    1.81416   1.81738   1.81742   1.81852   1.82735
 Alpha virt. eigenvalues --    1.82737   1.83365   1.85973   1.85977   1.88335
 Alpha virt. eigenvalues --    1.89686   1.89694   1.92006   1.93635   1.93647
 Alpha virt. eigenvalues --    1.94120   1.96539   1.96545   2.00495   2.00702
 Alpha virt. eigenvalues --    2.00705   2.02621   2.02623   2.02934   2.02937
 Alpha virt. eigenvalues --    2.04356   2.07053   2.09160   2.11914   2.11920
 Alpha virt. eigenvalues --    2.13585   2.13589   2.18343   2.18344   2.19078
 Alpha virt. eigenvalues --    2.19938   2.19951   2.19974   2.19977   2.21583
 Alpha virt. eigenvalues --    2.23865   2.23871   2.25555   2.27717   2.27727
 Alpha virt. eigenvalues --    2.28183   2.28985   2.29147   2.29148   2.29724
 Alpha virt. eigenvalues --    2.30304   2.31439   2.31442   2.32278   2.36763
 Alpha virt. eigenvalues --    2.36767   2.40375   2.40376   2.43049   2.43054
 Alpha virt. eigenvalues --    2.43061   2.48992   2.56466   2.56472   2.56860
 Alpha virt. eigenvalues --    2.56869   2.62029   2.62037   2.63381   2.63383
 Alpha virt. eigenvalues --    2.66069   2.76094   2.76105   2.76418   2.76848
 Alpha virt. eigenvalues --    2.78440   2.79166   2.84022   2.84041   2.85387
 Alpha virt. eigenvalues --    2.86242   2.86244   2.86777   2.92987   2.92991
 Alpha virt. eigenvalues --    3.00696   3.02160   3.02593   3.02595   3.03120
 Alpha virt. eigenvalues --    3.03724   3.03726   3.03886   3.05434   3.05440
 Alpha virt. eigenvalues --    3.07218   3.07220   3.07265   3.07823   3.07832
 Alpha virt. eigenvalues --    3.10976   3.10987   3.11542   3.12885   3.17017
 Alpha virt. eigenvalues --    3.17026   3.17582   3.17584   3.21507   3.21513
 Alpha virt. eigenvalues --    3.21556   3.24289   3.24290   3.24695   3.25683
 Alpha virt. eigenvalues --    3.26828   3.31244   3.31246   3.33429   3.36325
 Alpha virt. eigenvalues --    3.36328   3.41720   3.41724   3.44038   3.49194
 Alpha virt. eigenvalues --    3.49197   3.54533   3.58973   3.61522   3.64046
 Alpha virt. eigenvalues --    3.70139   3.70151   3.73863   3.73871   3.78206
 Alpha virt. eigenvalues --    3.81041   3.81058   3.87259   3.87264   3.90374
 Alpha virt. eigenvalues --    3.95524   3.95543   3.96608   3.96620   3.97127
 Alpha virt. eigenvalues --    4.02427   4.02434   4.06833   4.12213   4.22859
 Alpha virt. eigenvalues --    4.22870   4.27624   4.45594   4.45598   4.47241
 Alpha virt. eigenvalues --    4.49849   4.49858   4.50192   4.59978   4.59982
 Alpha virt. eigenvalues --    4.73254   4.94130   4.94144   5.26100   5.26106
 Alpha virt. eigenvalues --    5.31975   5.36812  24.61222  24.88134  24.88137
 Alpha virt. eigenvalues --   25.08114  25.09533  25.09561  25.11865  25.11896
 Alpha virt. eigenvalues --   25.12845  25.18673  25.18697  25.20904  25.26059
 Alpha virt. eigenvalues --   25.27140  25.27181  25.35169  25.35190  25.35776
          Condensed to atoms (all electrons):
              1          2          3          4          5          6
     1  C   18.083946  -4.636871  -4.871529   4.320958  -3.329914  -0.947351
     2  C   -4.636871  27.946517  -5.358628  -3.642370  10.430305  -3.323449
     3  C   -4.871529  -5.358628  20.742824   2.804664  -3.629861   4.317610
     4  C    4.320958  -3.642370   2.804664  20.755094  -5.379415  -4.868027
     5  C   -3.329914  10.430305  -3.629861  -5.379415  27.960305  -4.629250
     6  C   -0.947351  -3.323449   4.317610  -4.868027  -4.629250  18.076824
     7  C   -0.181555  -0.617797  -3.596436  -6.282168   7.457745  -1.209472
     8  C   -0.208719  -5.341075   3.168818   3.878424  -6.283398  -0.679645
     9  C    1.273295  -3.817615   0.370620   3.172900  -3.590376  -0.719254
    10  C   -0.719190  -3.593816   3.171735   0.378037  -3.821994   1.275596
    11  C   -0.676441  -6.268295   3.869163   3.175563  -5.339396  -0.212194
    12  C    0.463707  -1.829409  -3.821374  -5.343000  -0.614198   0.205067
    13  C    0.239054   0.463623   1.276423  -0.209975  -0.181561  -0.356498
    14  C   -0.356694   0.205489  -0.721320  -0.682022  -1.206850  -0.640620
    15  C   -1.208529   7.455209  -6.271388  -3.592794  -0.615307  -0.182361
    16  C   -0.642415  -1.210523  -0.677962  -0.717945   0.207537  -0.356963
    17  C   -0.356948  -0.181024  -0.211210   1.275326   0.463593   0.239028
    18  C    0.207404  -0.615037  -5.338294  -3.820056  -1.832228   0.463596
    19  H    0.525835  -0.160928   0.017758   0.093448  -0.125521  -0.106651
    20  H   -0.533111   1.114608  -0.098486  -0.186491   0.492302  -0.050752
    21  H   -0.106369  -0.125667   0.093322   0.017959  -0.161210   0.525811
    22  H   -0.004237  -0.054282  -0.109280  -0.031696   0.050988   0.009574
    23  H    0.000828   0.003169   0.015380   0.010324  -0.008996  -0.003529
    24  H   -0.002351   0.002697   0.001620   0.044512  -0.022740  -0.003917
    25  H    0.106676   0.116711  -0.359609  -0.071687  -0.159414   0.023907
    26  H   -0.003908  -0.022753   0.044490   0.001632   0.002694  -0.002351
    27  H   -0.003538  -0.008985   0.010317   0.015387   0.003176   0.000827
    28  H    0.009616   0.050912  -0.031692  -0.109299  -0.054363  -0.004210
    29  H    0.023971  -0.159267  -0.071744  -0.359536   0.116628   0.106411
    30  H   -0.051116   0.492356  -0.185901  -0.099033   1.115063  -0.532421
              7          8          9         10         11         12
     1  C   -0.181555  -0.208719   1.273295  -0.719190  -0.676441   0.463707
     2  C   -0.617797  -5.341075  -3.817615  -3.593816  -6.268295  -1.829409
     3  C   -3.596436   3.168818   0.370620   3.171735   3.869163  -3.821374
     4  C   -6.282168   3.878424   3.172900   0.378037   3.175563  -5.343000
     5  C    7.457745  -6.283398  -3.590376  -3.821994  -5.339396  -0.614198
     6  C   -1.209472  -0.679645  -0.719254   1.275596  -0.212194   0.205067
     7  C   27.943334  -5.365778  -3.637939  -5.342802  -3.819867  10.438678
     8  C   -5.365778  20.742056   2.806536   3.171579   0.371260  -3.636920
     9  C   -3.637939   2.806536  20.740597   3.880300   3.168842  -5.364688
    10  C   -5.342802   3.171579   3.880300  20.761570   2.800149  -6.285794
    11  C   -3.819867   0.371260   3.168842   2.800149  20.741672  -3.597207
    12  C   10.438678  -3.636920  -5.364688  -6.285794  -3.597207  27.949063
    13  C   -3.321488   4.323947  -4.872063  -0.681996  -0.718807  -4.628954
    14  C   -4.626255  -4.869392   4.319393  -0.210422   1.275086  -3.316932
    15  C   -1.828225  -3.815018  -5.340151  -3.637196  -5.358837  -0.617704
    16  C    0.463955   1.274601  -0.207638   4.323408  -4.874942  -0.179831
    17  C    0.205159  -0.722322  -0.680976  -4.872211   4.320064  -1.210578
    18  C   -0.613373  -3.591145  -6.277789  -5.373651  -3.631788   7.455596
    19  H   -0.008959   0.010355   0.015363   0.001624   0.044509   0.003170
    20  H    0.050745  -0.032069  -0.109077  -0.071763  -0.359631  -0.054222
    21  H   -0.022781   0.044586   0.001640   0.015406   0.010346   0.002691
    22  H    0.492347  -0.186489  -0.098145  -0.359715  -0.071862   1.114272
    23  H   -0.125588   0.093274   0.017945   0.044517   0.001641  -0.160850
    24  H   -0.160785   0.017932   0.093321   0.010319   0.015374  -0.125599
    25  H   -0.054203  -0.108964  -0.031910  -0.186222  -0.098019   0.050813
    26  H    0.003165   0.015355   0.010344   0.093351   0.017741  -0.008966
    27  H    0.002691   0.001607   0.044528   0.017855   0.093297  -0.022768
    28  H   -0.159267  -0.071566  -0.359755  -0.098768  -0.185967   0.116492
    29  H    1.114189  -0.098385  -0.186462  -0.031734  -0.109253   0.492286
    30  H    0.116537  -0.359938  -0.071740  -0.109317  -0.031724  -0.159303
             13         14         15         16         17         18
     1  C    0.239054  -0.356694  -1.208529  -0.642415  -0.356948   0.207404
     2  C    0.463623   0.205489   7.455209  -1.210523  -0.181024  -0.615037
     3  C    1.276423  -0.721320  -6.271388  -0.677962  -0.211210  -5.338294
     4  C   -0.209975  -0.682022  -3.592794  -0.717945   1.275326  -3.820056
     5  C   -0.181561  -1.206850  -0.615307   0.207537   0.463593  -1.832228
     6  C   -0.356498  -0.640620  -0.182361  -0.356963   0.239028   0.463596
     7  C   -3.321488  -4.626255  -1.828225   0.463955   0.205159  -0.613373
     8  C    4.323947  -4.869392  -3.815018   1.274601  -0.722322  -3.591145
     9  C   -4.872063   4.319393  -5.340151  -0.207638  -0.680976  -6.277789
    10  C   -0.681996  -0.210422  -3.637196   4.323408  -4.872211  -5.373651
    11  C   -0.718807   1.275086  -5.358837  -4.874942   4.320064  -3.631788
    12  C   -4.628954  -3.316932  -0.617704  -0.179831  -1.210578   7.455596
    13  C   18.078617  -0.958574   0.205657  -0.356761  -0.640720  -1.207713
    14  C   -0.958574  18.076478   0.463592   0.239082  -0.356554  -0.181507
    15  C    0.205657   0.463592  27.941059  -4.636227  -3.323980  10.427095
    16  C   -0.356761   0.239082  -4.636227  18.087277  -0.949843  -3.332190
    17  C   -0.640720  -0.356554  -3.323980  -0.949843  18.082927  -4.627170
    18  C   -1.207713  -0.181507  10.427095  -3.332190  -4.627170  27.953354
    19  H    0.000828  -0.003529  -0.022763  -0.003905  -0.002352   0.002693
    20  H   -0.004212   0.009574   0.117004   0.106567   0.023945  -0.159248
    21  H   -0.002355  -0.003915  -0.008994  -0.003537   0.000827   0.003180
    22  H   -0.532906  -0.050612  -0.159358   0.024028   0.106404   0.116590
    23  H    0.525717  -0.106525   0.002693  -0.002356  -0.003908  -0.022733
    24  H   -0.106540   0.525718   0.003170   0.000829  -0.003533  -0.008999
    25  H    0.009574  -0.004214   1.114027  -0.533162  -0.050789   0.492243
    26  H   -0.003529   0.000828  -0.160897   0.525889  -0.106582  -0.125533
    27  H   -0.003915  -0.002352  -0.125619  -0.106490   0.525831  -0.160873
    28  H    0.106474   0.023894   0.492340  -0.051029  -0.532635   1.114580
    29  H   -0.050715  -0.532884  -0.054251  -0.004228   0.009582   0.050966
    30  H    0.023935   0.106502   0.050916   0.009605  -0.004215  -0.054368
             19         20         21         22         23         24
     1  C    0.525835  -0.533111  -0.106369  -0.004237   0.000828  -0.002351
     2  C   -0.160928   1.114608  -0.125667  -0.054282   0.003169   0.002697
     3  C    0.017758  -0.098486   0.093322  -0.109280   0.015380   0.001620
     4  C    0.093448  -0.186491   0.017959  -0.031696   0.010324   0.044512
     5  C   -0.125521   0.492302  -0.161210   0.050988  -0.008996  -0.022740
     6  C   -0.106651  -0.050752   0.525811   0.009574  -0.003529  -0.003917
     7  C   -0.008959   0.050745  -0.022781   0.492347  -0.125588  -0.160785
     8  C    0.010355  -0.032069   0.044586  -0.186489   0.093274   0.017932
     9  C    0.015363  -0.109077   0.001640  -0.098145   0.017945   0.093321
    10  C    0.001624  -0.071763   0.015406  -0.359715   0.044517   0.010319
    11  C    0.044509  -0.359631   0.010346  -0.071862   0.001641   0.015374
    12  C    0.003170  -0.054222   0.002691   1.114272  -0.160850  -0.125599
    13  C    0.000828  -0.004212  -0.002355  -0.532906   0.525717  -0.106540
    14  C   -0.003529   0.009574  -0.003915  -0.050612  -0.106525   0.525718
    15  C   -0.022763   0.117004  -0.008994  -0.159358   0.002693   0.003170
    16  C   -0.003905   0.106567  -0.003537   0.024028  -0.002356   0.000829
    17  C   -0.002352   0.023945   0.000827   0.106404  -0.003908  -0.003533
    18  C    0.002693  -0.159248   0.003180   0.116590  -0.022733  -0.008999
    19  H    0.579525  -0.048167  -0.016825  -0.000018  -0.000002   0.000021
    20  H   -0.048167   0.778481  -0.000863   0.000949  -0.000017   0.000083
    21  H   -0.016825  -0.000863   0.579438   0.000083   0.000021  -0.000072
    22  H   -0.000018   0.000949   0.000083   0.778764  -0.048158  -0.000866
    23  H   -0.000002  -0.000017   0.000021  -0.048158   0.579422  -0.016806
    24  H    0.000021   0.000083  -0.000072  -0.000866  -0.016806   0.579459
    25  H    0.006944  -0.082689  -0.000079  -0.003116   0.000083  -0.000018
    26  H   -0.000072   0.006937   0.000021  -0.000079   0.000021  -0.000002
    27  H    0.000021  -0.000077  -0.000002   0.006950  -0.000072   0.000021
    28  H    0.000083  -0.003116  -0.000017  -0.082768   0.006942  -0.000077
    29  H   -0.000077  -0.003117   0.006937   0.016160  -0.000862  -0.048170
    30  H   -0.000867   0.016153  -0.048113  -0.003113  -0.000079   0.006943
             25         26         27         28         29         30
     1  C    0.106676  -0.003908  -0.003538   0.009616   0.023971  -0.051116
     2  C    0.116711  -0.022753  -0.008985   0.050912  -0.159267   0.492356
     3  C   -0.359609   0.044490   0.010317  -0.031692  -0.071744  -0.185901
     4  C   -0.071687   0.001632   0.015387  -0.109299  -0.359536  -0.099033
     5  C   -0.159414   0.002694   0.003176  -0.054363   0.116628   1.115063
     6  C    0.023907  -0.002351   0.000827  -0.004210   0.106411  -0.532421
     7  C   -0.054203   0.003165   0.002691  -0.159267   1.114189   0.116537
     8  C   -0.108964   0.015355   0.001607  -0.071566  -0.098385  -0.359938
     9  C   -0.031910   0.010344   0.044528  -0.359755  -0.186462  -0.071740
    10  C   -0.186222   0.093351   0.017855  -0.098768  -0.031734  -0.109317
    11  C   -0.098019   0.017741   0.093297  -0.185967  -0.109253  -0.031724
    12  C    0.050813  -0.008966  -0.022768   0.116492   0.492286  -0.159303
    13  C    0.009574  -0.003529  -0.003915   0.106474  -0.050715   0.023935
    14  C   -0.004214   0.000828  -0.002352   0.023894  -0.532884   0.106502
    15  C    1.114027  -0.160897  -0.125619   0.492340  -0.054251   0.050916
    16  C   -0.533162   0.525889  -0.106490  -0.051029  -0.004228   0.009605
    17  C   -0.050789  -0.106582   0.525831  -0.532635   0.009582  -0.004215
    18  C    0.492243  -0.125533  -0.160873   1.114580   0.050966  -0.054368
    19  H    0.006944  -0.000072   0.000021   0.000083  -0.000077  -0.000867
    20  H   -0.082689   0.006937  -0.000077  -0.003116  -0.003117   0.016153
    21  H   -0.000079   0.000021  -0.000002  -0.000017   0.006937  -0.048113
    22  H   -0.003116  -0.000079   0.006950  -0.082768   0.016160  -0.003113
    23  H    0.000083   0.000021  -0.000072   0.006942  -0.000862  -0.000079
    24  H   -0.000018  -0.000002   0.000021  -0.000077  -0.048170   0.006943
    25  H    0.778627  -0.048150  -0.000859   0.016157   0.000950  -0.003116
    26  H   -0.048150   0.579475  -0.016838  -0.000857  -0.000018   0.000083
    27  H   -0.000859  -0.016838   0.579481  -0.048156   0.000083  -0.000017
    28  H    0.016157  -0.000857  -0.048156   0.778612  -0.003114   0.000945
    29  H    0.000950  -0.000018   0.000083  -0.003114   0.778573  -0.082672
    30  H   -0.003116   0.000083  -0.000017   0.000945  -0.082672   0.778447
 Mulliken atomic charges:
              1
     1  C   -0.414506
     2  C   -1.313805
     3  C    1.449969
     4  C    1.451287
     5  C   -1.314344
     6  C   -0.415336
     7  C   -1.313806
     8  C    1.450492
     9  C    1.449956
    10  C    1.451142
    11  C    1.449520
    12  C   -1.313536
    13  C   -0.414565
    14  C   -0.414462
    15  C   -1.313166
    16  C   -0.414832
    17  C   -0.415135
    18  C   -1.313602
    19  H    0.198459
    20  H    0.079760
    21  H    0.198530
    22  H    0.079589
    23  H    0.198502
    24  H    0.198455
    25  H    0.079506
    26  H    0.198511
    27  H    0.198489
    28  H    0.079612
    29  H    0.079753
    30  H    0.079564
 Sum of Mulliken atomic charges =   0.00000
 Mulliken charges with hydrogens summed into heavy atoms:
              1
     1  C   -0.216047
     2  C   -1.234045
     3  C    1.449969
     4  C    1.451287
     5  C   -1.234780
     6  C   -0.216806
     7  C   -1.234053
     8  C    1.450492
     9  C    1.449956
    10  C    1.451142
    11  C    1.449520
    12  C   -1.233947
    13  C   -0.216062
    14  C   -0.216007
    15  C   -1.233661
    16  C   -0.216322
    17  C   -0.216646
    18  C   -1.233990
 Sum of Mulliken charges with hydrogens summed into heavy atoms =   0.00000
 Electronic spatial extent (au):  <R**2>=           4128.6762
 Charge=              0.0000 electrons
 Dipole moment (field-independent basis, Debye):
    X=             -0.0004    Y=              0.0001    Z=              0.0000  Tot=              0.0004
 Quadrupole moment (field-independent basis, Debye-Ang):
   XX=            -92.2296   YY=            -92.2286   ZZ=           -115.1089
   XY=             -0.0019   XZ=              0.0000   YZ=              0.0000
 Traceless Quadrupole moment (field-independent basis, Debye-Ang):
   XX=              7.6261   YY=              7.6271   ZZ=            -15.2532
   XY=             -0.0019   XZ=              0.0000   YZ=              0.0000
 Octapole moment (field-independent basis, Debye-Ang**2):
  XXX=              0.9705  YYY=              0.0302  ZZZ=              0.0000  XYY=             -0.9823
  XXY=             -0.0173  XXZ=              0.0000  XZZ=             -0.0010  YZZ=             -0.0034
  YYZ=              0.0000  XYZ=              0.0000
 Hexadecapole moment (field-independent basis, Debye-Ang**3):
 XXXX=          -2617.1346 YYYY=          -2617.0607 ZZZZ=           -141.3463 XXXY=              0.0054
 XXXZ=              0.0000 YYYX=             -0.0151 YYYZ=              0.0000 ZZZX=              0.0000
 ZZZY=              0.0000 XXYY=           -872.2959 XXZZ=           -570.5411 YYZZ=           -570.5408
 XXYZ=              0.0000 YYXZ=              0.0000 ZZXY=              0.0118
 N-N= 1.155519341444D+03 E-N=-3.916360344878D+03  KE= 6.908560829149D+02
 Symmetry A'   KE= 6.714567952343D+02
 Symmetry A"   KE= 1.939928768060D+01
 No NMR shielding tensors so no spin-rotation constants.
 Leave Link  601 at Fri Dec  3 14:59:09 2021, MaxMem=  498073600 cpu:       2.9
 (Enter /apps/software//g09/l9999.exe)
 1\1\GINC-DLT21\SP\RMP2-FC\6-311++G(d,p)\C18H12\ITAMAR\03-Dec-2021\0\\#
 P MP2/6-311++G** DENSITY=MP2\\Triphenylene\\0,1\C,0,-2.431423,2.879416
 ,0.\C,0,-2.434607,1.49623,0.\C,0,-1.23732,0.745059,0.\C,0,0.,1.444316,
 0.\C,0,-0.025222,2.857357,0.\C,0,-1.211696,3.568628,0.\C,0,2.512737,1.
 360197,0.\C,0,1.263931,0.699212,0.\C,0,1.250869,-0.722429,0.\C,0,-0.02
 6624,-1.444243,0.\C,0,-1.250945,-0.722123,0.\C,0,2.487097,-1.406697,0.
 \C,0,3.696492,-0.734754,0.\C,0,3.709438,0.665761,0.\C,0,-2.461986,-1.4
 50582,0.\C,0,-2.484447,-2.833657,0.\C,0,-1.277925,-3.545288,0.\C,0,-0.
 078343,-2.856523,0.\H,0,-3.371741,3.423819,0.\H,0,-3.391753,0.988623,0
 .\H,0,-1.193214,4.654994,0.\H,0,2.505547,-2.489939,0.\H,0,4.627616,-1.
 294671,0.\H,0,4.650723,1.208458,0.\H,0,-3.409177,-0.924765,0.\H,0,-3.4
 34681,-3.360561,0.\H,0,-1.279275,-4.631832,0.\H,0,0.840006,-3.431249,0
 .\H,0,2.551976,2.442946,0.\H,0,0.903806,3.414903,0.\\Version=EM64L-G09
 RevA.02\State=1-A'\HF=-688.7980855\MP2=-691.2596012\RMSD=6.877e-09\Dip
 ole=-0.0001584,0.0000244,0.\Quadrupole=5.6698345,5.6705454,-11.3403798
 ,-0.0013956,0.,0.\PG=CS [SG(C18H12)]\\@


 THE MOST INCOMPREHENSIBLE THING ABOUT THE WORLD
 IS THAT IT IS COMPREHENSIBLE. -- A. EINSTEIN
 Job cpu time:  0 days  2 hours 33 minutes 48.5 seconds.
 File lengths (MBytes):  RWF=  68452 Int=      0 D2E=      0 Chk=     15 Scr=      1
 Normal termination of Gaussian 09 at Fri Dec  3 14:59:14 2021.
