Hepta-O                                                                 
SP        RMP2-FC                                                     6-311++G(d,p)       
Number of atoms                            I               14
Info1-9                                    I   N=           9
          24          23           0           0           0         110
           1           2           1
Charge                                     I                0
Multiplicity                               I                1
Number of electrons                        I               56
Number of alpha electrons                  I               28
Number of beta electrons                   I               28
Number of basis functions                  I              218
Number of independent functions            I              218
Number of point charges in /Mol/           I                0
Number of translation vectors              I                0
Atomic numbers                             I   N=          14
           6           6           6           6           6           6
           6           1           1           1           1           1
           1           8
Nuclear charges                            R   N=          14
  6.00000000E+00  6.00000000E+00  6.00000000E+00  6.00000000E+00  6.00000000E+00
  6.00000000E+00  6.00000000E+00  1.00000000E+00  1.00000000E+00  1.00000000E+00
  1.00000000E+00  1.00000000E+00  1.00000000E+00  8.00000000E+00
Current cartesian coordinates              R   N=          42
  1.28607580E+00 -3.48998213E+00  5.84897410E-16  2.95288228E+00 -1.35746209E+00
  5.27862860E-16 -1.28601910E+00 -3.49002937E+00  2.69914151E-16 -2.95289928E+00
 -1.35757547E+00 -1.95368922E-16 -2.42696582E+00  1.15509321E+00 -4.38674128E-16
 -3.79241267E-16  2.50793681E+00 -3.07133708E-16  2.42697905E+00  1.15518770E+00
  1.55747834E-16 -4.01680754E+00  2.45280972E+00 -7.92296929E-16  4.01686045E+00
  2.45284751E+00  1.91533606E-16  4.94894519E+00 -1.84088427E+00  8.31510855E-16
  2.20779350E+00 -5.32263853E+00  9.22210302E-16 -2.20766878E+00 -5.32273113E+00
  3.81486444E-16 -4.94895275E+00 -1.84103167E+00 -3.80607325E-16 -5.85815101E-05
  4.83532540E+00 -5.92163743E-16
Force Field                                I                0
Int Atom Types                             I   N=          14
           0           0           0           0           0           0
           0           0           0           0           0           0
           0           0
MM charges                                 R   N=          14
  0.00000000E+00  0.00000000E+00  0.00000000E+00  0.00000000E+00  0.00000000E+00
  0.00000000E+00  0.00000000E+00  0.00000000E+00  0.00000000E+00  0.00000000E+00
  0.00000000E+00  0.00000000E+00  0.00000000E+00  0.00000000E+00
Integer atomic weights                     I   N=          14
          12          12          12          12          12          12
          12           1           1           1           1           1
           1          16
Real atomic weights                        R   N=          14
  1.20000000E+01  1.20000000E+01  1.20000000E+01  1.20000000E+01  1.20000000E+01
  1.20000000E+01  1.20000000E+01  1.00782504E+00  1.00782504E+00  1.00782504E+00
  1.00782504E+00  1.00782504E+00  1.00782504E+00  1.59949146E+01
Atom fragment info                         I   N=          14
           0           0           0           0           0           0
           0           0           0           0           0           0
           0           0
Atom residue num                           I   N=          14
           0           0           0           0           0           0
           0           0           0           0           0           0
           0           0
Nuclear spins                              I   N=          14
           0           0           0           0           0           0
           0           1           1           1           1           1
           1           0
Nuclear ZEff                               R   N=          14
 -3.60000000E+00 -3.60000000E+00 -3.60000000E+00 -3.60000000E+00 -3.60000000E+00
 -3.60000000E+00 -3.60000000E+00 -1.00000000E+00 -1.00000000E+00 -1.00000000E+00
 -1.00000000E+00 -1.00000000E+00 -1.00000000E+00 -5.60000000E+00
Nuclear QMom                               R   N=          14
  0.00000000E+00  0.00000000E+00  0.00000000E+00  0.00000000E+00  0.00000000E+00
  0.00000000E+00  0.00000000E+00  0.00000000E+00  0.00000000E+00  0.00000000E+00
  0.00000000E+00  0.00000000E+00  0.00000000E+00  0.00000000E+00
Nuclear GFac                               R   N=          14
  0.00000000E+00  0.00000000E+00  0.00000000E+00  0.00000000E+00  0.00000000E+00
  0.00000000E+00  0.00000000E+00  2.79284600E+00  2.79284600E+00  2.79284600E+00
  2.79284600E+00  2.79284600E+00  2.79284600E+00  0.00000000E+00
MicOpt                                     I   N=          14
          -1          -1          -1          -1          -1          -1
          -1          -1          -1          -1          -1          -1
          -1          -1
Number of contracted shells                I               78
Number of primitive shells                 I              146
Pure/Cartesian d shells                    I                0
Pure/Cartesian f shells                    I                0
Highest angular momentum                   I                2
Largest degree of contraction              I                6
Shell types                                I   N=          78
           0          -1          -1          -1          -1          -2
           0          -1          -1          -1          -1          -2
           0          -1          -1          -1          -1          -2
           0          -1          -1          -1          -1          -2
           0          -1          -1          -1          -1          -2
           0          -1          -1          -1          -1          -2
           0          -1          -1          -1          -1          -2
           0           0           0           0           1           0
           0           0           0           1           0           0
           0           0           1           0           0           0
           0           1           0           0           0           0
           1           0           0           0           0           1
           0          -1          -1          -1          -1          -2
Number of primitives per shell             I   N=          78
           6           3           1           1           1           1
           6           3           1           1           1           1
           6           3           1           1           1           1
           6           3           1           1           1           1
           6           3           1           1           1           1
           6           3           1           1           1           1
           6           3           1           1           1           1
           3           1           1           1           1           3
           1           1           1           1           3           1
           1           1           1           3           1           1
           1           1           3           1           1           1
           1           3           1           1           1           1
           6           3           1           1           1           1
Shell to atom map                          I   N=          78
           1           1           1           1           1           1
           2           2           2           2           2           2
           3           3           3           3           3           3
           4           4           4           4           4           4
           5           5           5           5           5           5
           6           6           6           6           6           6
           7           7           7           7           7           7
           8           8           8           8           8           9
           9           9           9           9          10          10
          10          10          10          11          11          11
          11          11          12          12          12          12
          12          13          13          13          13          13
          14          14          14          14          14          14
Primitive exponents                        R   N=         146
  4.56324000E+03  6.82024000E+02  1.54973000E+02  4.44553000E+01  1.30290000E+01
  1.82773000E+00  2.09642000E+01  4.80331000E+00  1.45933000E+00  4.83456000E-01
  1.45585000E-01  4.38000000E-02  6.26000000E-01  4.56324000E+03  6.82024000E+02
  1.54973000E+02  4.44553000E+01  1.30290000E+01  1.82773000E+00  2.09642000E+01
  4.80331000E+00  1.45933000E+00  4.83456000E-01  1.45585000E-01  4.38000000E-02
  6.26000000E-01  4.56324000E+03  6.82024000E+02  1.54973000E+02  4.44553000E+01
  1.30290000E+01  1.82773000E+00  2.09642000E+01  4.80331000E+00  1.45933000E+00
  4.83456000E-01  1.45585000E-01  4.38000000E-02  6.26000000E-01  4.56324000E+03
  6.82024000E+02  1.54973000E+02  4.44553000E+01  1.30290000E+01  1.82773000E+00
  2.09642000E+01  4.80331000E+00  1.45933000E+00  4.83456000E-01  1.45585000E-01
  4.38000000E-02  6.26000000E-01  4.56324000E+03  6.82024000E+02  1.54973000E+02
  4.44553000E+01  1.30290000E+01  1.82773000E+00  2.09642000E+01  4.80331000E+00
  1.45933000E+00  4.83456000E-01  1.45585000E-01  4.38000000E-02  6.26000000E-01
  4.56324000E+03  6.82024000E+02  1.54973000E+02  4.44553000E+01  1.30290000E+01
  1.82773000E+00  2.09642000E+01  4.80331000E+00  1.45933000E+00  4.83456000E-01
  1.45585000E-01  4.38000000E-02  6.26000000E-01  4.56324000E+03  6.82024000E+02
  1.54973000E+02  4.44553000E+01  1.30290000E+01  1.82773000E+00  2.09642000E+01
  4.80331000E+00  1.45933000E+00  4.83456000E-01  1.45585000E-01  4.38000000E-02
  6.26000000E-01  3.38650000E+01  5.09479000E+00  1.15879000E+00  3.25840000E-01
  1.02741000E-01  3.60000000E-02  7.50000000E-01  3.38650000E+01  5.09479000E+00
  1.15879000E+00  3.25840000E-01  1.02741000E-01  3.60000000E-02  7.50000000E-01
  3.38650000E+01  5.09479000E+00  1.15879000E+00  3.25840000E-01  1.02741000E-01
  3.60000000E-02  7.50000000E-01  3.38650000E+01  5.09479000E+00  1.15879000E+00
  3.25840000E-01  1.02741000E-01  3.60000000E-02  7.50000000E-01  3.38650000E+01
  5.09479000E+00  1.15879000E+00  3.25840000E-01  1.02741000E-01  3.60000000E-02
  7.50000000E-01  3.38650000E+01  5.09479000E+00  1.15879000E+00  3.25840000E-01
  1.02741000E-01  3.60000000E-02  7.50000000E-01  8.58850000E+03  1.29723000E+03
  2.99296000E+02  8.73771000E+01  2.56789000E+01  3.74004000E+00  4.21175000E+01
  9.62837000E+00  2.85332000E+00  9.05661000E-01  2.55611000E-01  8.45000000E-02
  1.29200000E+00
Contraction coefficients                   R   N=         146
  1.96665025E-03  1.52306019E-02  7.61269097E-02  2.60801033E-01  6.16462078E-01
  2.21006028E-01  1.14660081E-01  9.19999648E-01 -3.03068213E-03  1.00000000E+00
  1.00000000E+00  1.00000000E+00  1.00000000E+00  1.96665025E-03  1.52306019E-02
  7.61269097E-02  2.60801033E-01  6.16462078E-01  2.21006028E-01  1.14660081E-01
  9.19999648E-01 -3.03068213E-03  1.00000000E+00  1.00000000E+00  1.00000000E+00
  1.00000000E+00  1.96665025E-03  1.52306019E-02  7.61269097E-02  2.60801033E-01
  6.16462078E-01  2.21006028E-01  1.14660081E-01  9.19999648E-01 -3.03068213E-03
  1.00000000E+00  1.00000000E+00  1.00000000E+00  1.00000000E+00  1.96665025E-03
  1.52306019E-02  7.61269097E-02  2.60801033E-01  6.16462078E-01  2.21006028E-01
  1.14660081E-01  9.19999648E-01 -3.03068213E-03  1.00000000E+00  1.00000000E+00
  1.00000000E+00  1.00000000E+00  1.96665025E-03  1.52306019E-02  7.61269097E-02
  2.60801033E-01  6.16462078E-01  2.21006028E-01  1.14660081E-01  9.19999648E-01
 -3.03068213E-03  1.00000000E+00  1.00000000E+00  1.00000000E+00  1.00000000E+00
  1.96665025E-03  1.52306019E-02  7.61269097E-02  2.60801033E-01  6.16462078E-01
  2.21006028E-01  1.14660081E-01  9.19999648E-01 -3.03068213E-03  1.00000000E+00
  1.00000000E+00  1.00000000E+00  1.00000000E+00  1.96665025E-03  1.52306019E-02
  7.61269097E-02  2.60801033E-01  6.16462078E-01  2.21006028E-01  1.14660081E-01
  9.19999648E-01 -3.03068213E-03  1.00000000E+00  1.00000000E+00  1.00000000E+00
  1.00000000E+00  2.54938145E-02  1.90373109E-01  8.52161486E-01  1.00000000E+00
  1.00000000E+00  1.00000000E+00  1.00000000E+00  2.54938145E-02  1.90373109E-01
  8.52161486E-01  1.00000000E+00  1.00000000E+00  1.00000000E+00  1.00000000E+00
  2.54938145E-02  1.90373109E-01  8.52161486E-01  1.00000000E+00  1.00000000E+00
  1.00000000E+00  1.00000000E+00  2.54938145E-02  1.90373109E-01  8.52161486E-01
  1.00000000E+00  1.00000000E+00  1.00000000E+00  1.00000000E+00  2.54938145E-02
  1.90373109E-01  8.52161486E-01  1.00000000E+00  1.00000000E+00  1.00000000E+00
  1.00000000E+00  2.54938145E-02  1.90373109E-01  8.52161486E-01  1.00000000E+00
  1.00000000E+00  1.00000000E+00  1.00000000E+00  1.89515008E-03  1.43859006E-02
  7.07320031E-02  2.40001011E-01  5.94797026E-01  2.80802012E-01  1.13889012E-01
  9.20811101E-01 -3.27447036E-03  1.00000000E+00  1.00000000E+00  1.00000000E+00
  1.00000000E+00
P(S=P) Contraction coefficients            R   N=         146
  0.00000000E+00  0.00000000E+00  0.00000000E+00  0.00000000E+00  0.00000000E+00
  0.00000000E+00  4.02486927E-02  2.37593957E-01  8.15853851E-01  1.00000000E+00
  1.00000000E+00  1.00000000E+00  0.00000000E+00  0.00000000E+00  0.00000000E+00
  0.00000000E+00  0.00000000E+00  0.00000000E+00  0.00000000E+00  4.02486927E-02
  2.37593957E-01  8.15853851E-01  1.00000000E+00  1.00000000E+00  1.00000000E+00
  0.00000000E+00  0.00000000E+00  0.00000000E+00  0.00000000E+00  0.00000000E+00
  0.00000000E+00  0.00000000E+00  4.02486927E-02  2.37593957E-01  8.15853851E-01
  1.00000000E+00  1.00000000E+00  1.00000000E+00  0.00000000E+00  0.00000000E+00
  0.00000000E+00  0.00000000E+00  0.00000000E+00  0.00000000E+00  0.00000000E+00
  4.02486927E-02  2.37593957E-01  8.15853851E-01  1.00000000E+00  1.00000000E+00
  1.00000000E+00  0.00000000E+00  0.00000000E+00  0.00000000E+00  0.00000000E+00
  0.00000000E+00  0.00000000E+00  0.00000000E+00  4.02486927E-02  2.37593957E-01
  8.15853851E-01  1.00000000E+00  1.00000000E+00  1.00000000E+00  0.00000000E+00
  0.00000000E+00  0.00000000E+00  0.00000000E+00  0.00000000E+00  0.00000000E+00
  0.00000000E+00  4.02486927E-02  2.37593957E-01  8.15853851E-01  1.00000000E+00
  1.00000000E+00  1.00000000E+00  0.00000000E+00  0.00000000E+00  0.00000000E+00
  0.00000000E+00  0.00000000E+00  0.00000000E+00  0.00000000E+00  4.02486927E-02
  2.37593957E-01  8.15853851E-01  1.00000000E+00  1.00000000E+00  1.00000000E+00
  0.00000000E+00  0.00000000E+00  0.00000000E+00  0.00000000E+00  0.00000000E+00
  0.00000000E+00  0.00000000E+00  0.00000000E+00  0.00000000E+00  0.00000000E+00
  0.00000000E+00  0.00000000E+00  0.00000000E+00  0.00000000E+00  0.00000000E+00
  0.00000000E+00  0.00000000E+00  0.00000000E+00  0.00000000E+00  0.00000000E+00
  0.00000000E+00  0.00000000E+00  0.00000000E+00  0.00000000E+00  0.00000000E+00
  0.00000000E+00  0.00000000E+00  0.00000000E+00  0.00000000E+00  0.00000000E+00
  0.00000000E+00  0.00000000E+00  0.00000000E+00  0.00000000E+00  0.00000000E+00
  0.00000000E+00  0.00000000E+00  0.00000000E+00  0.00000000E+00  0.00000000E+00
  0.00000000E+00  0.00000000E+00  0.00000000E+00  0.00000000E+00  0.00000000E+00
  0.00000000E+00  0.00000000E+00  0.00000000E+00  0.00000000E+00  3.65113974E-02
  2.37152983E-01  8.19701941E-01  1.00000000E+00  1.00000000E+00  1.00000000E+00
  0.00000000E+00
Coordinates of each shell                  R   N=         234
  1.28607499E+00 -3.48998206E+00  1.65295191E-31  1.28607499E+00 -3.48998206E+00
  1.65295191E-31  1.28607499E+00 -3.48998206E+00  1.65295191E-31  1.28607499E+00
 -3.48998206E+00  1.65295191E-31  1.28607499E+00 -3.48998206E+00  1.65295191E-31
  1.28607499E+00 -3.48998206E+00  1.65295191E-31  2.95288176E+00 -1.35746225E+00
  2.15449417E-31  2.95288176E+00 -1.35746225E+00  2.15449417E-31  2.95288176E+00
 -1.35746225E+00  2.15449417E-31  2.95288176E+00 -1.35746225E+00  2.15449417E-31
  2.95288176E+00 -1.35746225E+00  2.15449417E-31  2.95288176E+00 -1.35746225E+00
  2.15449417E-31 -1.28601991E+00 -3.49002896E+00  6.77876019E-33 -1.28601991E+00
 -3.49002896E+00  6.77876019E-33 -1.28601991E+00 -3.49002896E+00  6.77876019E-33
 -1.28601991E+00 -3.49002896E+00  6.77876019E-33 -1.28601991E+00 -3.49002896E+00
  6.77876019E-33 -1.28601991E+00 -3.49002896E+00  6.77876019E-33 -2.95289980E+00
 -1.35757484E+00 -1.48519697E-31 -2.95289980E+00 -1.35757484E+00 -1.48519697E-31
 -2.95289980E+00 -1.35757484E+00 -1.48519697E-31 -2.95289980E+00 -1.35757484E+00
 -1.48519697E-31 -2.95289980E+00 -1.35757484E+00 -1.48519697E-31 -2.95289980E+00
 -1.35757484E+00 -1.48519697E-31 -2.42696601E+00  1.15509377E+00 -1.78048588E-31
 -2.42696601E+00  1.15509377E+00 -1.78048588E-31 -2.42696601E+00  1.15509377E+00
 -1.78048588E-31 -2.42696601E+00  1.15509377E+00 -1.78048588E-31 -2.42696601E+00
  1.15509377E+00 -1.78048588E-31 -2.42696601E+00  1.15509377E+00 -1.78048588E-31
 -3.76128191E-32  2.50793705E+00 -6.18254215E-32 -3.76128191E-32  2.50793705E+00
 -6.18254215E-32 -3.76128191E-32  2.50793705E+00 -6.18254215E-32 -3.76128191E-32
  2.50793705E+00 -6.18254215E-32 -3.76128191E-32  2.50793705E+00 -6.18254215E-32
 -3.76128191E-32  2.50793705E+00 -6.18254215E-32  2.42697887E+00  1.15518760E+00
  1.21096548E-31  2.42697887E+00  1.15518760E+00  1.21096548E-31  2.42697887E+00
  1.15518760E+00  1.21096548E-31  2.42697887E+00  1.15518760E+00  1.21096548E-31
  2.42697887E+00  1.15518760E+00  1.21096548E-31  2.42697887E+00  1.15518760E+00
  1.21096548E-31 -4.01680754E+00  2.45281050E+00 -3.08021325E-31 -4.01680754E+00
  2.45281050E+00 -3.08021325E-31 -4.01680754E+00  2.45281050E+00 -3.08021325E-31
 -4.01680754E+00  2.45281050E+00 -3.08021325E-31 -4.01680754E+00  2.45281050E+00
 -3.08021325E-31  4.01686044E+00  2.45284721E+00  1.87090786E-31  4.01686044E+00
  2.45284721E+00  1.87090786E-31  4.01686044E+00  2.45284721E+00  1.87090786E-31
  4.01686044E+00  2.45284721E+00  1.87090786E-31  4.01686044E+00  2.45284721E+00
  1.87090786E-31  4.94894460E+00 -1.84088470E+00  3.50383571E-31  4.94894460E+00
 -1.84088470E+00  3.50383571E-31  4.94894460E+00 -1.84088470E+00  3.50383571E-31
  4.94894460E+00 -1.84088470E+00  3.50383571E-31  4.94894460E+00 -1.84088470E+00
  3.50383571E-31  2.20779244E+00 -5.32263859E+00  2.67278886E-31  2.20779244E+00
 -5.32263859E+00  2.67278886E-31  2.20779244E+00 -5.32263859E+00  2.67278886E-31
  2.20779244E+00 -5.32263859E+00  2.67278886E-31  2.20779244E+00 -5.32263859E+00
  2.67278886E-31 -2.20766983E+00 -5.32273059E+00 -4.84271796E-33 -2.20766983E+00
 -5.32273059E+00 -4.84271796E-33 -2.20766983E+00 -5.32273059E+00 -4.84271796E-33
 -2.20766983E+00 -5.32273059E+00 -4.84271796E-33 -2.20766983E+00 -5.32273059E+00
 -4.84271796E-33 -4.94895333E+00 -1.84103077E+00 -2.59617885E-31 -4.94895333E+00
 -1.84103077E+00 -2.59617885E-31 -4.94895333E+00 -1.84103077E+00 -2.59617885E-31
 -4.94895333E+00 -1.84103077E+00 -2.59617885E-31 -4.94895333E+00 -1.84103077E+00
 -2.59617885E-31 -5.82683524E-05  4.83532564E+00 -1.19203571E-31 -5.82683524E-05
  4.83532564E+00 -1.19203571E-31 -5.82683524E-05  4.83532564E+00 -1.19203571E-31
 -5.82683524E-05  4.83532564E+00 -1.19203571E-31 -5.82683524E-05  4.83532564E+00
 -1.19203571E-31 -5.82683524E-05  4.83532564E+00 -1.19203571E-31
Constraint Structure                       R   N=          42
  1.28607499E+00 -3.48998206E+00  1.65295191E-31  2.95288176E+00 -1.35746225E+00
  2.15449417E-31 -1.28601991E+00 -3.49002896E+00  6.77876019E-33 -2.95289980E+00
 -1.35757484E+00 -1.48519697E-31 -2.42696601E+00  1.15509377E+00 -1.78048588E-31
 -3.76128191E-32  2.50793705E+00 -6.18254215E-32  2.42697887E+00  1.15518760E+00
  1.21096548E-31 -4.01680754E+00  2.45281050E+00 -3.08021325E-31  4.01686044E+00
  2.45284721E+00  1.87090786E-31  4.94894460E+00 -1.84088470E+00  3.50383571E-31
  2.20779244E+00 -5.32263859E+00  2.67278886E-31 -2.20766983E+00 -5.32273059E+00
 -4.84271796E-33 -4.94895333E+00 -1.84103077E+00 -2.59617885E-31 -5.82683524E-05
  4.83532564E+00 -1.19203571E-31
Num ILSW                                   I              100
ILSW                                       I   N=         100
           0           0           0           0           2           0
           0           0           0           0           0          -1
           0           0           0           0           0           0
           0           0           0           0           0           0
           1           0           0           0           0           0
           0           0      100000           0          -1           0
           0           0           0           0           0           0
           0           0           0           1           0           0
           0           0           1           0           0           0
           0           0           4          40           0           0
           0           0           0           0           0           0
           0           0           0           0           0           0
           0           0           0           0           0           0
           0           0           0           0           0           0
           0           0           0           0           0           0
           0           0           0           0           0           0
           0           0           0           0
Num RLSW                                   I               40
RLSW                                       R   N=          40
  1.00000000E+00  1.00000000E+00  1.00000000E+00  1.00000000E+00  1.00000000E+00
  0.00000000E+00  0.00000000E+00  1.00000000E+00  0.00000000E+00  0.00000000E+00
  0.00000000E+00  0.00000000E+00  1.00000000E+00  0.00000000E+00  0.00000000E+00
  0.00000000E+00  0.00000000E+00  1.00000000E+00  0.00000000E+00  0.00000000E+00
  0.00000000E+00  0.00000000E+00  1.00000000E+00  0.00000000E+00  0.00000000E+00
  0.00000000E+00  0.00000000E+00  1.00000000E+00  0.00000000E+00  0.00000000E+00
  0.00000000E+00  0.00000000E+00  0.00000000E+00  0.00000000E+00  0.00000000E+00
  0.00000000E+00  0.00000000E+00  0.00000000E+00  1.00000000E+00  1.00000000E+00
MxBond                                     I                3
NBond                                      I   N=          14
           3           3           3           3           3           3
           3           1           1           1           1           1
           1           1
IBond                                      I   N=          42
           2           3          11           1           7          10
           1           4          12           3           5          13
           4           6           8           5           7          14
           2           6           9           5           0           0
           7           0           0           2           0           0
           1           0           0           3           0           0
           4           0           0           6           0           0
RBond                                      R   N=          42
  1.00000000E+00  2.00000000E+00  1.00000000E+00  1.00000000E+00  2.00000000E+00
  1.00000000E+00  2.00000000E+00  1.00000000E+00  1.00000000E+00  1.00000000E+00
  2.00000000E+00  1.00000000E+00  2.00000000E+00  1.00000000E+00  1.00000000E+00
  1.00000000E+00  1.00000000E+00  2.00000000E+00  2.00000000E+00  1.00000000E+00
  1.00000000E+00  1.00000000E+00  0.00000000E+00  0.00000000E+00  1.00000000E+00
  0.00000000E+00  0.00000000E+00  1.00000000E+00  0.00000000E+00  0.00000000E+00
  1.00000000E+00  0.00000000E+00  0.00000000E+00  1.00000000E+00  0.00000000E+00
  0.00000000E+00  1.00000000E+00  0.00000000E+00  0.00000000E+00  2.00000000E+00
  0.00000000E+00  0.00000000E+00
Virial Ratio                               R      2.001277354653842E+00
SCF Energy                                 R     -3.434710885476837E+02
MP2 Energy                                 R     -3.446222681232040E+02
Total Energy                               R     -3.446222681232040E+02
Post-SCF wavefunction norm                 R      1.186882479173503E+00
RMS Density                                R      2.099876051541997E-09
External E-field                           R   N=          35
  0.00000000E+00  0.00000000E+00  0.00000000E+00  0.00000000E+00  0.00000000E+00
  0.00000000E+00  0.00000000E+00  0.00000000E+00  0.00000000E+00  0.00000000E+00
  0.00000000E+00  0.00000000E+00  0.00000000E+00  0.00000000E+00  0.00000000E+00
  0.00000000E+00  0.00000000E+00  0.00000000E+00  0.00000000E+00  0.00000000E+00
  0.00000000E+00  0.00000000E+00  0.00000000E+00  0.00000000E+00  0.00000000E+00
  0.00000000E+00  0.00000000E+00  0.00000000E+00  0.00000000E+00  0.00000000E+00
  0.00000000E+00  0.00000000E+00  0.00000000E+00  0.00000000E+00  0.00000000E+00
IOpCl                                      I                0
IROHF                                      I                0
Alpha Orbital Energies                     R   N=         218
 -2.05283058E+01 -1.13361310E+01 -1.12779731E+01 -1.12779651E+01 -1.12741731E+01
 -1.12727237E+01 -1.12622163E+01 -1.12622017E+01 -1.37022157E+00 -1.15331762E+00
 -1.07946671E+00 -1.04297562E+00 -9.12563912E-01 -8.89640890E-01 -7.58290354E-01
 -7.37046524E-01 -7.14872837E-01 -6.43542649E-01 -6.26973431E-01 -5.93900434E-01
 -5.93649055E-01 -5.52912332E-01 -5.43540003E-01 -5.14704860E-01 -4.79548046E-01
 -4.23245253E-01 -4.06982564E-01 -3.23980974E-01  3.22164143E-02  3.42356988E-02
  4.15414253E-02  5.13338960E-02  6.41513832E-02  6.93976517E-02  7.28827289E-02
  8.84300336E-02  1.16678831E-01  1.28288081E-01  1.35833629E-01  1.39479502E-01
  1.45632438E-01  1.68049188E-01  1.69552401E-01  1.75058617E-01  1.78090232E-01
  1.81942494E-01  1.87134230E-01  1.89821476E-01  1.96876731E-01  1.97817175E-01
  2.02213111E-01  2.06695708E-01  2.08890054E-01  2.21943724E-01  2.28322093E-01
  2.34331482E-01  2.37086637E-01  2.69424578E-01  2.74822056E-01  2.87969900E-01
  2.88182755E-01  2.91382617E-01  3.09272135E-01  3.09960035E-01  3.17208928E-01
  3.25573857E-01  3.43930664E-01  3.76232385E-01  3.85160327E-01  3.97099004E-01
  4.00976190E-01  4.16627368E-01  4.25398988E-01  4.25930891E-01  4.46415388E-01
  4.54293121E-01  4.80855479E-01  4.88814717E-01  5.30310740E-01  5.57610145E-01
  5.69489909E-01  5.69733727E-01  6.25243499E-01  6.71042981E-01  6.74891669E-01
  7.10551446E-01  7.13310041E-01  7.17773181E-01  7.29868981E-01  7.34548657E-01
  7.39820626E-01  7.46450039E-01  7.80643646E-01  7.85621805E-01  7.92526246E-01
  8.30246919E-01  8.52812002E-01  8.55858498E-01  8.67272471E-01  9.20474392E-01
  9.21666485E-01  9.56246687E-01  9.65968094E-01  9.72345306E-01  9.85376868E-01
  9.99827197E-01  1.00873985E+00  1.03360115E+00  1.04530506E+00  1.08574084E+00
  1.10006480E+00  1.12198868E+00  1.12769932E+00  1.16453256E+00  1.18119296E+00
  1.19859811E+00  1.20217824E+00  1.24179369E+00  1.25793798E+00  1.26050150E+00
  1.30990559E+00  1.32021254E+00  1.35856177E+00  1.38027891E+00  1.39885479E+00
  1.43195391E+00  1.48651500E+00  1.56928264E+00  1.63443153E+00  1.68611035E+00
  1.71584829E+00  1.73729018E+00  1.75307781E+00  1.77057166E+00  1.80713937E+00
  1.81107858E+00  1.85428165E+00  1.87253201E+00  1.90224791E+00  1.92775135E+00
  1.95145425E+00  1.96621835E+00  1.98778416E+00  2.00514051E+00  2.00630063E+00
  2.05020295E+00  2.07131439E+00  2.10442551E+00  2.18389776E+00  2.19436043E+00
  2.20523023E+00  2.21260837E+00  2.22593897E+00  2.26172620E+00  2.27561093E+00
  2.29985030E+00  2.33245867E+00  2.33719255E+00  2.41021683E+00  2.41143293E+00
  2.50640980E+00  2.54482951E+00  2.68822025E+00  2.74262573E+00  2.74627252E+00
  2.74670241E+00  2.79593260E+00  2.84428817E+00  2.92401807E+00  2.94048418E+00
  2.94525994E+00  2.96183725E+00  2.98107770E+00  2.98962656E+00  2.99730230E+00
  3.01559358E+00  3.03251545E+00  3.04431928E+00  3.04793270E+00  3.13265569E+00
  3.13277319E+00  3.21078525E+00  3.22679608E+00  3.23526732E+00  3.32511510E+00
  3.33565801E+00  3.34109711E+00  3.36931328E+00  3.54828155E+00  3.57095968E+00
  3.59632144E+00  3.67923868E+00  3.68411646E+00  3.74683567E+00  3.75895458E+00
  3.86093319E+00  3.88680424E+00  3.91379821E+00  4.04520414E+00  4.07070460E+00
  4.34047962E+00  4.35450894E+00  4.39840265E+00  4.51430148E+00  4.59924013E+00
  4.67376855E+00  5.23529293E+00  5.63372026E+00  5.80567849E+00  6.32368537E+00
  2.47405242E+01  2.49580027E+01  2.50185671E+01  2.50291468E+01  2.52822214E+01
  2.53405225E+01  2.53635762E+01  5.17262787E+01
Alpha MO coefficients                      R   N=       47524
  3.25777542E-08 -2.33671560E-08 -1.35558527E-06 -1.42712085E-06  0.00000000E+00
 -3.37888304E-06  7.46254378E-06  9.07984530E-06  0.00000000E+00  9.91041124E-05
 -2.51670566E-06  5.93074087E-05  0.00000000E+00  1.30692522E-03 -1.82961784E-05
  3.04042052E-04  0.00000000E+00 -5.32624199E-07  0.00000000E+00  0.00000000E+00
 -1.39255676E-06  3.34054369E-06 -1.19919468E-07 -1.00728326E-06 -5.28851053E-08
  2.66357753E-06  0.00000000E+00  1.33686146E-05 -7.70305037E-07 -9.83798161E-06
  0.00000000E+00 -4.83571756E-04  2.12682219E-04 -1.58886177E-04  0.00000000E+00
 -3.25735624E-03  1.07479116E-03 -2.30104210E-04  0.00000000E+00  1.31593902E-06
  0.00000000E+00  0.00000000E+00  3.64440432E-06 -4.42468690E-06  3.25771578E-08
 -2.33440191E-08  1.35558515E-06 -1.42719687E-06  0.00000000E+00 -3.37992042E-06
 -7.46237691E-06  9.08027080E-06  0.00000000E+00  9.91392366E-05  2.50727046E-06
  5.93265467E-05  0.00000000E+00  1.30639451E-03  1.84906154E-05  3.03777120E-04