Clamp-15                                                                
SP        RMP2-FC                                                     6-311++G(d,p)       
Number of atoms                            I               12
Info1-9                                    I   N=           9
          19          19           0           0           0         110
           1           2           1
Full Title                                 C   N=           1
Clamp-15    
Route                                      C   N=           3
#P MP2/6-311++G** nosymm Density=MP2
Charge                                     I                0
Multiplicity                               I                1
Number of electrons                        I               42
Number of alpha electrons                  I               21
Number of beta electrons                   I               21
Number of basis functions                  I              174
Number of independent functions            I              174
Number of point charges in /Mol/           I                0
Number of translation vectors              I                0
Atomic numbers                             I   N=          12
           6           6           6           6           6           6
           1           1           1           1           1           1
Nuclear charges                            R   N=          12
  6.00000000E+00  6.00000000E+00  6.00000000E+00  6.00000000E+00  6.00000000E+00
  6.00000000E+00  1.00000000E+00  1.00000000E+00  1.00000000E+00  1.00000000E+00
  1.00000000E+00  1.00000000E+00
Current cartesian coordinates              R   N=          36
  2.64852883E+00  2.97884710E-02  0.00000000E+00  1.35001288E+00  2.27873849E+00
  0.00000000E+00 -1.35001288E+00  2.27873849E+00  0.00000000E+00 -2.64852883E+00
  2.97884710E-02  0.00000000E+00 -1.29845548E+00 -2.30852101E+00  0.00000000E+00
  1.29845548E+00 -2.30852101E+00  0.00000000E+00  4.62746154E+00 -5.00497063E-01
  0.00000000E+00  1.88027385E+00  4.25769006E+00  0.00000000E+00 -1.88027385E+00
  4.25769006E+00  0.00000000E+00 -4.62746154E+00 -5.00497063E-01  0.00000000E+00
 -2.74711397E+00 -3.75722864E+00  0.00000000E+00  2.74711397E+00 -3.75722864E+00
  0.00000000E+00
Number of symbols in /Mol/                 I                0
Force Field                                I                0
Atom Types                                 C   N=          12
                                                            
                                                            
                        
Int Atom Types                             I   N=          12
           0           0           0           0           0           0
           0           0           0           0           0           0
MM charges                                 R   N=          12
  0.00000000E+00  0.00000000E+00  0.00000000E+00  0.00000000E+00  0.00000000E+00
  0.00000000E+00  0.00000000E+00  0.00000000E+00  0.00000000E+00  0.00000000E+00
  0.00000000E+00  0.00000000E+00
Integer atomic weights                     I   N=          12
          12          12          12          12          12          12
           1           1           1           1           1           1
Real atomic weights                        R   N=          12
  1.20000000E+01  1.20000000E+01  1.20000000E+01  1.20000000E+01  1.20000000E+01
  1.20000000E+01  1.00782504E+00  1.00782504E+00  1.00782504E+00  1.00782504E+00
  1.00782504E+00  1.00782504E+00
Atom fragment info                         I   N=          12
           0           0           0           0           0           0
           0           0           0           0           0           0
Atom residue num                           I   N=          12
           0           0           0           0           0           0
           0           0           0           0           0           0
Nuclear spins                              I   N=          12
           0           0           0           0           0           0
           1           1           1           1           1           1
Nuclear ZEff                               R   N=          12
 -3.60000000E+00 -3.60000000E+00 -3.60000000E+00 -3.60000000E+00 -3.60000000E+00
 -3.60000000E+00 -1.00000000E+00 -1.00000000E+00 -1.00000000E+00 -1.00000000E+00
 -1.00000000E+00 -1.00000000E+00
Nuclear ZNuc                               R   N=          12
  6.00000000E+00  6.00000000E+00  6.00000000E+00  6.00000000E+00  6.00000000E+00
  6.00000000E+00  1.00000000E+00  1.00000000E+00  1.00000000E+00  1.00000000E+00
  1.00000000E+00  1.00000000E+00
Nuclear QMom                               R   N=          12
  0.00000000E+00  0.00000000E+00  0.00000000E+00  0.00000000E+00  0.00000000E+00
  0.00000000E+00  0.00000000E+00  0.00000000E+00  0.00000000E+00  0.00000000E+00
  0.00000000E+00  0.00000000E+00
Nuclear GFac                               R   N=          12
  0.00000000E+00  0.00000000E+00  0.00000000E+00  0.00000000E+00  0.00000000E+00
  0.00000000E+00  2.79284600E+00  2.79284600E+00  2.79284600E+00  2.79284600E+00
  2.79284600E+00  2.79284600E+00
MicOpt                                     I   N=          12
          -1          -1          -1          -1          -1          -1
          -1          -1          -1          -1          -1          -1
Number of residues                         I                0
Number of secondary structures             I                0
Number of contracted shells                I               66
Number of primitive shells                 I              120
Pure/Cartesian d shells                    I                0
Pure/Cartesian f shells                    I                0
Highest angular momentum                   I                2
Largest degree of contraction              I                6
Shell types                                I   N=          66
           0          -1          -1          -1          -1          -2
           0          -1          -1          -1          -1          -2
           0          -1          -1          -1          -1          -2
           0          -1          -1          -1          -1          -2
           0          -1          -1          -1          -1          -2
           0          -1          -1          -1          -1          -2
           0           0           0           0           1           0
           0           0           0           1           0           0
           0           0           1           0           0           0
           0           1           0           0           0           0
           1           0           0           0           0           1
Number of primitives per shell             I   N=          66
           6           3           1           1           1           1
           6           3           1           1           1           1
           6           3           1           1           1           1
           6           3           1           1           1           1
           6           3           1           1           1           1
           6           3           1           1           1           1
           3           1           1           1           1           3
           1           1           1           1           3           1
           1           1           1           3           1           1
           1           1           3           1           1           1
           1           3           1           1           1           1
Shell to atom map                          I   N=          66
           1           1           1           1           1           1
           2           2           2           2           2           2
           3           3           3           3           3           3
           4           4           4           4           4           4
           5           5           5           5           5           5
           6           6           6           6           6           6
           7           7           7           7           7           8
           8           8           8           8           9           9
           9           9           9          10          10          10
          10          10          11          11          11          11
          11          12          12          12          12          12
Primitive exponents                        R   N=         120
  4.56324000E+03  6.82024000E+02  1.54973000E+02  4.44553000E+01  1.30290000E+01
  1.82773000E+00  2.09642000E+01  4.80331000E+00  1.45933000E+00  4.83456000E-01
  1.45585000E-01  4.38000000E-02  6.26000000E-01  4.56324000E+03  6.82024000E+02
  1.54973000E+02  4.44553000E+01  1.30290000E+01  1.82773000E+00  2.09642000E+01
  4.80331000E+00  1.45933000E+00  4.83456000E-01  1.45585000E-01  4.38000000E-02
  6.26000000E-01  4.56324000E+03  6.82024000E+02  1.54973000E+02  4.44553000E+01
  1.30290000E+01  1.82773000E+00  2.09642000E+01  4.80331000E+00  1.45933000E+00
  4.83456000E-01  1.45585000E-01  4.38000000E-02  6.26000000E-01  4.56324000E+03
  6.82024000E+02  1.54973000E+02  4.44553000E+01  1.30290000E+01  1.82773000E+00
  2.09642000E+01  4.80331000E+00  1.45933000E+00  4.83456000E-01  1.45585000E-01
  4.38000000E-02  6.26000000E-01  4.56324000E+03  6.82024000E+02  1.54973000E+02
  4.44553000E+01  1.30290000E+01  1.82773000E+00  2.09642000E+01  4.80331000E+00
  1.45933000E+00  4.83456000E-01  1.45585000E-01  4.38000000E-02  6.26000000E-01
  4.56324000E+03  6.82024000E+02  1.54973000E+02  4.44553000E+01  1.30290000E+01
  1.82773000E+00  2.09642000E+01  4.80331000E+00  1.45933000E+00  4.83456000E-01
  1.45585000E-01  4.38000000E-02  6.26000000E-01  3.38650000E+01  5.09479000E+00
  1.15879000E+00  3.25840000E-01  1.02741000E-01  3.60000000E-02  7.50000000E-01
  3.38650000E+01  5.09479000E+00  1.15879000E+00  3.25840000E-01  1.02741000E-01
  3.60000000E-02  7.50000000E-01  3.38650000E+01  5.09479000E+00  1.15879000E+00
  3.25840000E-01  1.02741000E-01  3.60000000E-02  7.50000000E-01  3.38650000E+01
  5.09479000E+00  1.15879000E+00  3.25840000E-01  1.02741000E-01  3.60000000E-02
  7.50000000E-01  3.38650000E+01  5.09479000E+00  1.15879000E+00  3.25840000E-01
  1.02741000E-01  3.60000000E-02  7.50000000E-01  3.38650000E+01  5.09479000E+00
  1.15879000E+00  3.25840000E-01  1.02741000E-01  3.60000000E-02  7.50000000E-01
Contraction coefficients                   R   N=         120
  1.96665025E-03  1.52306019E-02  7.61269097E-02  2.60801033E-01  6.16462078E-01
  2.21006028E-01  1.14660081E-01  9.19999648E-01 -3.03068213E-03  1.00000000E+00
  1.00000000E+00  1.00000000E+00  1.00000000E+00  1.96665025E-03  1.52306019E-02
  7.61269097E-02  2.60801033E-01  6.16462078E-01  2.21006028E-01  1.14660081E-01
  9.19999648E-01 -3.03068213E-03  1.00000000E+00  1.00000000E+00  1.00000000E+00
  1.00000000E+00  1.96665025E-03  1.52306019E-02  7.61269097E-02  2.60801033E-01
  6.16462078E-01  2.21006028E-01  1.14660081E-01  9.19999648E-01 -3.03068213E-03
  1.00000000E+00  1.00000000E+00  1.00000000E+00  1.00000000E+00  1.96665025E-03
  1.52306019E-02  7.61269097E-02  2.60801033E-01  6.16462078E-01  2.21006028E-01
  1.14660081E-01  9.19999648E-01 -3.03068213E-03  1.00000000E+00  1.00000000E+00
  1.00000000E+00  1.00000000E+00  1.96665025E-03  1.52306019E-02  7.61269097E-02
  2.60801033E-01  6.16462078E-01  2.21006028E-01  1.14660081E-01  9.19999648E-01
 -3.03068213E-03  1.00000000E+00  1.00000000E+00  1.00000000E+00  1.00000000E+00
  1.96665025E-03  1.52306019E-02  7.61269097E-02  2.60801033E-01  6.16462078E-01
  2.21006028E-01  1.14660081E-01  9.19999648E-01 -3.03068213E-03  1.00000000E+00
  1.00000000E+00  1.00000000E+00  1.00000000E+00  2.54938145E-02  1.90373109E-01
  8.52161486E-01  1.00000000E+00  1.00000000E+00  1.00000000E+00  1.00000000E+00
  2.54938145E-02  1.90373109E-01  8.52161486E-01  1.00000000E+00  1.00000000E+00
  1.00000000E+00  1.00000000E+00  2.54938145E-02  1.90373109E-01  8.52161486E-01
  1.00000000E+00  1.00000000E+00  1.00000000E+00  1.00000000E+00  2.54938145E-02
  1.90373109E-01  8.52161486E-01  1.00000000E+00  1.00000000E+00  1.00000000E+00
  1.00000000E+00  2.54938145E-02  1.90373109E-01  8.52161486E-01  1.00000000E+00
  1.00000000E+00  1.00000000E+00  1.00000000E+00  2.54938145E-02  1.90373109E-01
  8.52161486E-01  1.00000000E+00  1.00000000E+00  1.00000000E+00  1.00000000E+00
P(S=P) Contraction coefficients            R   N=         120
  0.00000000E+00  0.00000000E+00  0.00000000E+00  0.00000000E+00  0.00000000E+00
  0.00000000E+00  4.02486927E-02  2.37593957E-01  8.15853851E-01  1.00000000E+00
  1.00000000E+00  1.00000000E+00  0.00000000E+00  0.00000000E+00  0.00000000E+00
  0.00000000E+00  0.00000000E+00  0.00000000E+00  0.00000000E+00  4.02486927E-02
  2.37593957E-01  8.15853851E-01  1.00000000E+00  1.00000000E+00  1.00000000E+00
  0.00000000E+00  0.00000000E+00  0.00000000E+00  0.00000000E+00  0.00000000E+00
  0.00000000E+00  0.00000000E+00  4.02486927E-02  2.37593957E-01  8.15853851E-01
  1.00000000E+00  1.00000000E+00  1.00000000E+00  0.00000000E+00  0.00000000E+00
  0.00000000E+00  0.00000000E+00  0.00000000E+00  0.00000000E+00  0.00000000E+00
  4.02486927E-02  2.37593957E-01  8.15853851E-01  1.00000000E+00  1.00000000E+00
  1.00000000E+00  0.00000000E+00  0.00000000E+00  0.00000000E+00  0.00000000E+00
  0.00000000E+00  0.00000000E+00  0.00000000E+00  4.02486927E-02  2.37593957E-01
  8.15853851E-01  1.00000000E+00  1.00000000E+00  1.00000000E+00  0.00000000E+00
  0.00000000E+00  0.00000000E+00  0.00000000E+00  0.00000000E+00  0.00000000E+00
  0.00000000E+00  4.02486927E-02  2.37593957E-01  8.15853851E-01  1.00000000E+00
  1.00000000E+00  1.00000000E+00  0.00000000E+00  0.00000000E+00  0.00000000E+00
  0.00000000E+00  0.00000000E+00  0.00000000E+00  0.00000000E+00  0.00000000E+00
  0.00000000E+00  0.00000000E+00  0.00000000E+00  0.00000000E+00  0.00000000E+00
  0.00000000E+00  0.00000000E+00  0.00000000E+00  0.00000000E+00  0.00000000E+00
  0.00000000E+00  0.00000000E+00  0.00000000E+00  0.00000000E+00  0.00000000E+00
  0.00000000E+00  0.00000000E+00  0.00000000E+00  0.00000000E+00  0.00000000E+00
  0.00000000E+00  0.00000000E+00  0.00000000E+00  0.00000000E+00  0.00000000E+00
  0.00000000E+00  0.00000000E+00  0.00000000E+00  0.00000000E+00  0.00000000E+00
  0.00000000E+00  0.00000000E+00  0.00000000E+00  0.00000000E+00  0.00000000E+00
Coordinates of each shell                  R   N=         198
  2.64852883E+00  2.97884710E-02  0.00000000E+00  2.64852883E+00  2.97884710E-02
  0.00000000E+00  2.64852883E+00  2.97884710E-02  0.00000000E+00  2.64852883E+00
  2.97884710E-02  0.00000000E+00  2.64852883E+00  2.97884710E-02  0.00000000E+00
  2.64852883E+00  2.97884710E-02  0.00000000E+00  1.35001288E+00  2.27873849E+00
  0.00000000E+00  1.35001288E+00  2.27873849E+00  0.00000000E+00  1.35001288E+00
  2.27873849E+00  0.00000000E+00  1.35001288E+00  2.27873849E+00  0.00000000E+00
  1.35001288E+00  2.27873849E+00  0.00000000E+00  1.35001288E+00  2.27873849E+00
  0.00000000E+00 -1.35001288E+00  2.27873849E+00  0.00000000E+00 -1.35001288E+00
  2.27873849E+00  0.00000000E+00 -1.35001288E+00  2.27873849E+00  0.00000000E+00
 -1.35001288E+00  2.27873849E+00  0.00000000E+00 -1.35001288E+00  2.27873849E+00
  0.00000000E+00 -1.35001288E+00  2.27873849E+00  0.00000000E+00 -2.64852883E+00
  2.97884710E-02  0.00000000E+00 -2.64852883E+00  2.97884710E-02  0.00000000E+00
 -2.64852883E+00  2.97884710E-02  0.00000000E+00 -2.64852883E+00  2.97884710E-02
  0.00000000E+00 -2.64852883E+00  2.97884710E-02  0.00000000E+00 -2.64852883E+00
  2.97884710E-02  0.00000000E+00 -1.29845548E+00 -2.30852101E+00  0.00000000E+00
 -1.29845548E+00 -2.30852101E+00  0.00000000E+00 -1.29845548E+00 -2.30852101E+00
  0.00000000E+00 -1.29845548E+00 -2.30852101E+00  0.00000000E+00 -1.29845548E+00
 -2.30852101E+00  0.00000000E+00 -1.29845548E+00 -2.30852101E+00  0.00000000E+00
  1.29845548E+00 -2.30852101E+00  0.00000000E+00  1.29845548E+00 -2.30852101E+00
  0.00000000E+00  1.29845548E+00 -2.30852101E+00  0.00000000E+00  1.29845548E+00
 -2.30852101E+00  0.00000000E+00  1.29845548E+00 -2.30852101E+00  0.00000000E+00
  1.29845548E+00 -2.30852101E+00  0.00000000E+00  4.62746154E+00 -5.00497063E-01
  0.00000000E+00  4.62746154E+00 -5.00497063E-01  0.00000000E+00  4.62746154E+00
 -5.00497063E-01  0.00000000E+00  4.62746154E+00 -5.00497063E-01  0.00000000E+00
  4.62746154E+00 -5.00497063E-01  0.00000000E+00  1.88027385E+00  4.25769006E+00
  0.00000000E+00  1.88027385E+00  4.25769006E+00  0.00000000E+00  1.88027385E+00
  4.25769006E+00  0.00000000E+00  1.88027385E+00  4.25769006E+00  0.00000000E+00
  1.88027385E+00  4.25769006E+00  0.00000000E+00 -1.88027385E+00  4.25769006E+00
  0.00000000E+00 -1.88027385E+00  4.25769006E+00  0.00000000E+00 -1.88027385E+00
  4.25769006E+00  0.00000000E+00 -1.88027385E+00  4.25769006E+00  0.00000000E+00
 -1.88027385E+00  4.25769006E+00  0.00000000E+00 -4.62746154E+00 -5.00497063E-01
  0.00000000E+00 -4.62746154E+00 -5.00497063E-01  0.00000000E+00 -4.62746154E+00
 -5.00497063E-01  0.00000000E+00 -4.62746154E+00 -5.00497063E-01  0.00000000E+00
 -4.62746154E+00 -5.00497063E-01  0.00000000E+00 -2.74711397E+00 -3.75722864E+00
  0.00000000E+00 -2.74711397E+00 -3.75722864E+00  0.00000000E+00 -2.74711397E+00
 -3.75722864E+00  0.00000000E+00 -2.74711397E+00 -3.75722864E+00  0.00000000E+00
 -2.74711397E+00 -3.75722864E+00  0.00000000E+00  2.74711397E+00 -3.75722864E+00
  0.00000000E+00  2.74711397E+00 -3.75722864E+00  0.00000000E+00  2.74711397E+00
 -3.75722864E+00  0.00000000E+00  2.74711397E+00 -3.75722864E+00  0.00000000E+00
  2.74711397E+00 -3.75722864E+00  0.00000000E+00
Num ILSW                                   I              100
ILSW                                       I   N=         100
           0           0           0           0           2           0
           0           0           0           0           0          -1
           5           0           0           0           0           0
           0           0           0           0           0           0
           1           1           0           0           0           0
           0           0      100000           0          -1           0
           0           0           0           0           0           0
           0           0           0           1           0           0
           0 -2000000000           1           0           0           0
           0           0           4          52           0           0
           0           0           0           0           0           0
           0           0           0          12           0           1
           0           0           0           0           0           0
           0           0           0           0           0           0
           0           0           0           0           0           0
           0           0           0           0           0           0
           0           0           0           0
Num RLSW                                   I               52
RLSW                                       R   N=          52
  1.00000000E+00  1.00000000E+00  1.00000000E+00  1.00000000E+00  1.00000000E+00
  0.00000000E+00  0.00000000E+00  1.00000000E+00  0.00000000E+00  0.00000000E+00
  0.00000000E+00  0.00000000E+00  1.00000000E+00  0.00000000E+00  0.00000000E+00
  0.00000000E+00  0.00000000E+00  1.00000000E+00  0.00000000E+00  0.00000000E+00
  0.00000000E+00  0.00000000E+00  1.00000000E+00  0.00000000E+00  0.00000000E+00
  0.00000000E+00  0.00000000E+00  1.00000000E+00  0.00000000E+00  0.00000000E+00
  0.00000000E+00  0.00000000E+00  1.00000000E+00  0.00000000E+00  0.00000000E+00
  0.00000000E+00  0.00000000E+00  0.00000000E+00  1.00000000E+00  1.00000000E+00
  0.00000000E+00  1.00000000E+00  0.00000000E+00  0.00000000E+00  0.00000000E+00
  0.00000000E+00  0.00000000E+00  0.00000000E+00  0.00000000E+00  0.00000000E+00
  0.00000000E+00  0.00000000E+00
MxBond                                     I                3
NBond                                      I   N=          12
           3           3           3           3           3           3
           1           1           1           1           1           1
IBond                                      I   N=          36
           2           6           7           1           3           8
           2           4           9           3           5          10
           4           6          11           1           5          12
           1           0           0           2           0           0
           3           0           0           4           0           0
           5           0           0           6           0           0
RBond                                      R   N=          36
  1.50000000E+00  1.50000000E+00  1.00000000E+00  1.50000000E+00  1.50000000E+00
  1.00000000E+00  1.50000000E+00  1.50000000E+00  1.00000000E+00  1.50000000E+00
  1.50000000E+00  1.00000000E+00  1.50000000E+00  1.50000000E+00  1.00000000E+00
  1.50000000E+00  1.50000000E+00  1.00000000E+00  1.00000000E+00  0.00000000E+00
  0.00000000E+00  1.00000000E+00  0.00000000E+00  0.00000000E+00  1.00000000E+00
  0.00000000E+00  0.00000000E+00  1.00000000E+00  0.00000000E+00  0.00000000E+00
  1.00000000E+00  0.00000000E+00  0.00000000E+00  1.00000000E+00  0.00000000E+00
  0.00000000E+00
Virial Ratio                               R      2.001264599215507E+00
SCF Energy                                 R     -2.307034361736328E+02
MP2 Energy                                 R     -2.315380350229048E+02
Total Energy                               R     -2.315380350229048E+02
Post-SCF wavefunction norm                 R      1.145526360583939E+00
RMS Density                                R      4.395944783093020E-09
Job Status                                 I                1
Nuclear derivative order                   I                0
External E-field                           R   N=          35
  0.00000000E+00  0.00000000E+00  0.00000000E+00  0.00000000E+00  0.00000000E+00
  0.00000000E+00  0.00000000E+00  0.00000000E+00  0.00000000E+00  0.00000000E+00
  0.00000000E+00  0.00000000E+00  0.00000000E+00  0.00000000E+00  0.00000000E+00
  0.00000000E+00  0.00000000E+00  0.00000000E+00  0.00000000E+00  0.00000000E+00
  0.00000000E+00  0.00000000E+00  0.00000000E+00  0.00000000E+00  0.00000000E+00
  0.00000000E+00  0.00000000E+00  0.00000000E+00  0.00000000E+00  0.00000000E+00
  0.00000000E+00  0.00000000E+00  0.00000000E+00  0.00000000E+00  0.00000000E+00
IOpCl                                      I                0
IROHF                                      I                0
Alpha Orbital Energies                     R   N=         174
 -1.12429825E+01 -1.12424406E+01 -1.12424392E+01 -1.12412130E+01 -1.12412115E+01
 -1.12406386E+01 -1.15153210E+00 -1.01970677E+00 -1.01970521E+00 -8.30565767E-01
 -8.30561696E-01 -7.26330723E-01 -6.37880467E-01 -6.10921084E-01 -5.89749882E-01
 -5.89745399E-01 -5.01095477E-01 -4.82902662E-01 -4.82889618E-01 -3.38619982E-01
 -3.38619700E-01  4.19122116E-02  4.88830470E-02  4.88833998E-02  6.66824839E-02
  6.66827404E-02  8.86406531E-02  1.06572699E-01  1.06577005E-01  1.29053611E-01
  1.52690261E-01  1.52690453E-01  1.55333685E-01  1.61504989E-01  1.74435150E-01
  1.74436490E-01  1.87170606E-01  1.87170810E-01  1.91322443E-01  2.09280103E-01
  2.13893217E-01  2.13893805E-01  2.15035779E-01  2.15038258E-01  2.19184615E-01
  2.26895725E-01  2.26896598E-01  2.50284473E-01  2.50284987E-01  2.87571951E-01
  2.87572882E-01  3.00748078E-01  3.30281418E-01  3.34943353E-01  3.64666962E-01
  3.77449944E-01  3.77451878E-01  4.39655166E-01  4.39658262E-01  4.43002338E-01
  4.86914420E-01  4.86920354E-01  5.19652316E-01  5.19655459E-01  5.90265178E-01
  6.49215726E-01  6.87235744E-01  7.14108558E-01  7.26693277E-01  7.26695721E-01
  7.54618337E-01  7.54621501E-01  7.57329159E-01  7.57331269E-01  7.63968285E-01
  7.95118952E-01  8.17762702E-01  8.17764608E-01  8.84428274E-01  9.12284443E-01
  9.12287758E-01  9.54061805E-01  9.54062887E-01  9.68149834E-01  1.00829036E+00
  1.01953031E+00  1.01953285E+00  1.05992620E+00  1.05992739E+00  1.08130392E+00
  1.13108945E+00  1.13109164E+00  1.14298576E+00  1.16138973E+00  1.21191375E+00
  1.21191778E+00  1.24380314E+00  1.31550935E+00  1.31551625E+00  1.40101005E+00
  1.40101446E+00  1.53367660E+00  1.57242910E+00  1.59637912E+00  1.71775195E+00
  1.71776677E+00  1.75804345E+00  1.80546080E+00  1.80950115E+00  1.80950570E+00
  1.88394981E+00  1.88396031E+00  1.97647561E+00  1.97649547E+00  1.99359683E+00
  2.05261099E+00  2.05261395E+00  2.13623044E+00  2.17409530E+00  2.17410648E+00
  2.18695829E+00  2.19164286E+00  2.19166051E+00  2.20435459E+00  2.20435960E+00
  2.30956923E+00  2.38585427E+00  2.38586707E+00  2.43847371E+00  2.43847753E+00
  2.50921280E+00  2.60641915E+00  2.60642815E+00  2.72346200E+00  2.78708099E+00
  2.80089530E+00  2.80092506E+00  2.82099705E+00  2.87516874E+00  2.94186133E+00
  2.94186492E+00  3.01989689E+00  3.01990070E+00  3.05421996E+00  3.14076261E+00
  3.14077458E+00  3.16926593E+00  3.18940473E+00  3.18940744E+00  3.29597008E+00
  3.29597092E+00  3.34438178E+00  3.34438445E+00  3.40363505E+00  3.47132408E+00
  3.52067495E+00  3.72115552E+00  3.72118300E+00  3.85430274E+00  3.93114952E+00
  3.93115004E+00  4.02539706E+00  4.38144307E+00  4.38144545E+00  4.52662677E+00
  4.55554015E+00  4.55554510E+00  5.24875512E+00  2.47087336E+01  2.50844366E+01
  2.50844722E+01  2.53418671E+01  2.53418718E+01  2.54131924E+01
Alpha MO coefficients                      R   N=       30276
  2.30108844E-01  1.90523660E-01 -3.42548004E-05  2.74574989E-05 -9.41488326E-17
  2.00202470E-03 -1.53065866E-04 -1.48720340E-05 -4.25756763E-16 -3.42666744E-04
  2.09120893E-05  1.37497930E-05  1.47153002E-15 -1.54735503E-04 -2.12583175E-04
  9.93213145E-05 -2.39621302E-15 -1.28589810E-04 -2.33335906E-16  1.79704040E-16
 -5.77847974E-05 -4.12952812E-05  2.29784535E-01  1.90255052E-01  6.69036012E-06
 -4.35579921E-05  2.45231447E-16  1.99967794E-03 -8.93387359E-05 -1.25009079E-04
 -5.47511271E-17 -3.42248157E-04  2.23960355E-05  1.09217696E-05 -9.61266765E-16
 -1.58034938E-04 -2.02260387E-05 -2.32425858E-04  3.07032693E-15 -1.28283743E-04
 -1.13890822E-17  1.50628605E-16 -6.72286049E-06 -7.06074018E-05  2.29784535E-01
  1.90255052E-01 -6.69036011E-06 -4.35579921E-05 -3.73156413E-16  1.99967794E-03
  8.93387359E-05 -1.25009079E-04  3.62206498E-16 -3.42248152E-04 -2.23960359E-05
  1.09217639E-05  4.91813578E-16 -1.58034734E-04  2.02260454E-05 -2.32425910E-04
 -3.43161404E-15 -1.28283743E-04  5.18176033E-17 -1.54343907E-16 -6.72286045E-06
  7.06074018E-05  2.30108844E-01  1.90523660E-01  3.42548004E-05  2.74574989E-05
 -6.81465092E-17  2.00202470E-03  1.53065866E-04 -1.48720340E-05 -1.66845005E-16
 -3.42666748E-04 -2.09120942E-05  1.37497894E-05 -6.89633164E-17 -1.54735731E-04
  2.12583124E-04  9.93212999E-05  2.69754987E-15 -1.28589810E-04 -1.77925741E-16
 -2.20223423E-16 -5.77847974E-05  4.12952812E-05  2.29853152E-01  1.90311858E-01
  4.09044970E-05  1.60556264E-05 -1.13274596E-16  2.00027626E-03  6.35724681E-05
  1.40062912E-04 -1.66561689E-17 -3.42539383E-04  1.73061982E-06 -2.48912076E-05
  1.68804483E-16 -1.56743985E-04  1.91384960E-04  1.33821111E-04 -2.00895571E-15
 -1.28344591E-04 -1.23651055E-16 -3.28580659E-17  6.44836259E-05 -2.94919217E-05
  2.29853152E-01  1.90311858E-01 -4.09044970E-05  1.60556264E-05 -2.49868867E-16
  2.00027626E-03 -6.35724682E-05  1.40062912E-04  4.37136854E-16 -3.42539388E-04
 -1.73061349E-06 -2.48912100E-05 -9.81030145E-16 -1.56744216E-04 -1.91384920E-04
  1.33821069E-04  2.19989858E-15 -1.28344591E-04 -2.70656984E-16 -7.91851917E-18
  6.44836259E-05  2.94919216E-05  1.73539089E-04 -8.09559539E-05  2.78194868E-04
  1.24536338E-04  5.41488413E-06  3.83088356E-05 -1.02104966E-16  1.73315579E-04
 -8.07340366E-05  2.77971347E-04  1.24043960E-04  3.58078093E-05 -1.44946176E-05
 -2.55571364E-18  1.73315579E-04 -8.07340359E-05  2.77971349E-04  1.24043969E-04
 -3.58078093E-05 -1.44946176E-05  9.27353402E-17  1.73539089E-04 -8.09559549E-05
  2.78194866E-04  1.24536328E-04 -5.41488421E-06  3.83088356E-05 -1.42102549E-16
  1.73378581E-04 -8.07360710E-05  2.78012846E-04  1.24087911E-04  3.04770876E-05
 -2.37613991E-05 -7.66304543E-17  1.73378581E-04 -8.07360719E-05  2.78012843E-04
  1.24087898E-04 -3.04770876E-05 -2.37613992E-05  2.00534209E-16  3.23537182E-01
  2.67918370E-01 -1.31774473E-05  5.33414627E-05  1.80355365E-16  2.62336274E-03
 -8.50487763E-05 -2.46455875E-05 -3.44582867E-17 -2.53876098E-04  2.35050878E-06
 -1.08814530E-05 -8.42541553E-16 -1.08698617E-03 -1.09817528E-03  5.25935301E-04
 -3.22367877E-16 -2.10652637E-04  4.16058520E-16 -6.76449433E-17 -7.77559898E-05
 -1.09250929E-04  1.91100724E-01  1.58254845E-01  1.54594170E-04 -1.03842325E-04
 -2.25839774E-16  1.50863562E-03  1.14584957E-04  1.00519616E-06  2.63761876E-16
 -6.62501197E-05 -1.42988108E-04  1.29549209E-04  8.88884768E-16 -2.33790238E-03
  6.88070393E-04 -8.66605495E-04 -1.54619846E-16 -1.34683219E-04 -2.55316829E-16
 -2.33512695E-16 -1.06297834E-04 -1.50222644E-04 -1.91100721E-01 -1.58254843E-01
  1.54594171E-04  1.03842325E-04 -3.70945548E-16 -1.50863560E-03  1.14584959E-04
 -1.00519703E-06  4.77409955E-16  6.62501167E-05 -1.42988109E-04 -1.29549210E-04
 -1.30760326E-15  2.33790239E-03  6.88070398E-04  8.66605481E-04  1.02090713E-15
  1.34683217E-04 -1.48300393E-16 -4.95053564E-17  1.06297834E-04 -1.50222644E-04
 -3.23537181E-01 -2.67918369E-01 -1.31774472E-05 -5.33414604E-05 -7.73632556E-17
 -2.62336273E-03 -8.50487778E-05  2.46455891E-05 -1.28770993E-16  2.53876098E-04
  2.35050768E-06  1.08814502E-05  8.48448933E-16  1.08698614E-03 -1.09817529E-03
 -5.25935293E-04 -1.24874668E-15  2.10652637E-04 -9.40144103E-17 -2.31120346E-16