Hepta-CH2                                                               
SP        RMP2-FC                                                     6-311++G(d,p)       
Number of atoms                            I               16
Info1-9                                    I   N=           9
          26          25           0           0           0         110
           1           2           1
Charge                                     I                0
Multiplicity                               I                1
Number of electrons                        I               56
Number of alpha electrons                  I               28
Number of beta electrons                   I               28
Number of basis functions                  I              232
Number of independent functions            I              232
Number of point charges in /Mol/           I                0
Number of translation vectors              I                0
Atomic numbers                             I   N=          16
           6           6           6           6           6           6
           6           1           1           1           1           1
           1           6           1           1
Nuclear charges                            R   N=          16
  6.00000000E+00  6.00000000E+00  6.00000000E+00  6.00000000E+00  6.00000000E+00
  6.00000000E+00  6.00000000E+00  1.00000000E+00  1.00000000E+00  1.00000000E+00
  1.00000000E+00  1.00000000E+00  1.00000000E+00  6.00000000E+00  1.00000000E+00
  1.00000000E+00
Current cartesian coordinates              R   N=          48
  1.27801045E+00 -3.56975692E+00  5.93695679E-16  2.95723809E+00 -1.41103016E+00
  5.34994091E-16 -1.27729046E+00 -3.57020667E+00  2.80786009E-16 -2.95703022E+00
 -1.41174825E+00 -1.89277867E-16 -2.42258733E+00  1.08646780E+00 -4.29764334E-16
 -1.25930056E-16  2.42823005E+00 -2.97372398E-16  2.42247583E+00  1.08721236E+00
  1.63551695E-16 -4.04737386E+00  2.34350040E+00 -7.82704886E-16  4.04741165E+00
  2.34402385E+00  2.08653396E-16  4.95385092E+00 -1.88899859E+00  8.38066839E-16
  2.20923725E+00 -5.39819167E+00  9.31667933E-16 -2.20794279E+00 -5.39891922E+00
  3.90755523E-16 -4.95357124E+00 -1.88997558E+00 -3.75241604E-16 -7.21875383E-04
  4.98955162E+00 -6.11132262E-16  1.74448745E+00  6.05864906E+00 -5.28311519E-16
 -1.74667764E+00  6.05760027E+00 -9.55769359E-16
Force Field                                I                0
Int Atom Types                             I   N=          16
           0           0           0           0           0           0
           0           0           0           0           0           0
           0           0           0           0
MM charges                                 R   N=          16
  0.00000000E+00  0.00000000E+00  0.00000000E+00  0.00000000E+00  0.00000000E+00
  0.00000000E+00  0.00000000E+00  0.00000000E+00  0.00000000E+00  0.00000000E+00
  0.00000000E+00  0.00000000E+00  0.00000000E+00  0.00000000E+00  0.00000000E+00
  0.00000000E+00
Integer atomic weights                     I   N=          16
          12          12          12          12          12          12
          12           1           1           1           1           1
           1          12           1           1
Real atomic weights                        R   N=          16
  1.20000000E+01  1.20000000E+01  1.20000000E+01  1.20000000E+01  1.20000000E+01
  1.20000000E+01  1.20000000E+01  1.00782504E+00  1.00782504E+00  1.00782504E+00
  1.00782504E+00  1.00782504E+00  1.00782504E+00  1.20000000E+01  1.00782504E+00
  1.00782504E+00
Atom fragment info                         I   N=          16
           0           0           0           0           0           0
           0           0           0           0           0           0
           0           0           0           0
Atom residue num                           I   N=          16
           0           0           0           0           0           0
           0           0           0           0           0           0
           0           0           0           0
Nuclear spins                              I   N=          16
           0           0           0           0           0           0
           0           1           1           1           1           1
           1           0           1           1
Nuclear ZEff                               R   N=          16
 -3.60000000E+00 -3.60000000E+00 -3.60000000E+00 -3.60000000E+00 -3.60000000E+00
 -3.60000000E+00 -3.60000000E+00 -1.00000000E+00 -1.00000000E+00 -1.00000000E+00
 -1.00000000E+00 -1.00000000E+00 -1.00000000E+00 -3.60000000E+00 -1.00000000E+00
 -1.00000000E+00
Nuclear QMom                               R   N=          16
  0.00000000E+00  0.00000000E+00  0.00000000E+00  0.00000000E+00  0.00000000E+00
  0.00000000E+00  0.00000000E+00  0.00000000E+00  0.00000000E+00  0.00000000E+00
  0.00000000E+00  0.00000000E+00  0.00000000E+00  0.00000000E+00  0.00000000E+00
  0.00000000E+00
Nuclear GFac                               R   N=          16
  0.00000000E+00  0.00000000E+00  0.00000000E+00  0.00000000E+00  0.00000000E+00
  0.00000000E+00  0.00000000E+00  2.79284600E+00  2.79284600E+00  2.79284600E+00
  2.79284600E+00  2.79284600E+00  2.79284600E+00  0.00000000E+00  2.79284600E+00
  2.79284600E+00
MicOpt                                     I   N=          16
          -1          -1          -1          -1          -1          -1
          -1          -1          -1          -1          -1          -1
          -1          -1          -1          -1
Number of contracted shells                I               88
Number of primitive shells                 I              160
Pure/Cartesian d shells                    I                0
Pure/Cartesian f shells                    I                0
Highest angular momentum                   I                2
Largest degree of contraction              I                6
Shell types                                I   N=          88
           0          -1          -1          -1          -1          -2
           0          -1          -1          -1          -1          -2
           0          -1          -1          -1          -1          -2
           0          -1          -1          -1          -1          -2
           0          -1          -1          -1          -1          -2
           0          -1          -1          -1          -1          -2
           0          -1          -1          -1          -1          -2
           0           0           0           0           1           0
           0           0           0           1           0           0
           0           0           1           0           0           0
           0           1           0           0           0           0
           1           0           0           0           0           1
           0          -1          -1          -1          -1          -2
           0           0           0           0           1           0
           0           0           0           1
Number of primitives per shell             I   N=          88
           6           3           1           1           1           1
           6           3           1           1           1           1
           6           3           1           1           1           1
           6           3           1           1           1           1
           6           3           1           1           1           1
           6           3           1           1           1           1
           6           3           1           1           1           1
           3           1           1           1           1           3
           1           1           1           1           3           1
           1           1           1           3           1           1
           1           1           3           1           1           1
           1           3           1           1           1           1
           6           3           1           1           1           1
           3           1           1           1           1           3
           1           1           1           1
Shell to atom map                          I   N=          88
           1           1           1           1           1           1
           2           2           2           2           2           2
           3           3           3           3           3           3
           4           4           4           4           4           4
           5           5           5           5           5           5
           6           6           6           6           6           6
           7           7           7           7           7           7
           8           8           8           8           8           9
           9           9           9           9          10          10
          10          10          10          11          11          11
          11          11          12          12          12          12
          12          13          13          13          13          13
          14          14          14          14          14          14
          15          15          15          15          15          16
          16          16          16          16
Primitive exponents                        R   N=         160
  4.56324000E+03  6.82024000E+02  1.54973000E+02  4.44553000E+01  1.30290000E+01
  1.82773000E+00  2.09642000E+01  4.80331000E+00  1.45933000E+00  4.83456000E-01
  1.45585000E-01  4.38000000E-02  6.26000000E-01  4.56324000E+03  6.82024000E+02
  1.54973000E+02  4.44553000E+01  1.30290000E+01  1.82773000E+00  2.09642000E+01
  4.80331000E+00  1.45933000E+00  4.83456000E-01  1.45585000E-01  4.38000000E-02
  6.26000000E-01  4.56324000E+03  6.82024000E+02  1.54973000E+02  4.44553000E+01
  1.30290000E+01  1.82773000E+00  2.09642000E+01  4.80331000E+00  1.45933000E+00
  4.83456000E-01  1.45585000E-01  4.38000000E-02  6.26000000E-01  4.56324000E+03
  6.82024000E+02  1.54973000E+02  4.44553000E+01  1.30290000E+01  1.82773000E+00
  2.09642000E+01  4.80331000E+00  1.45933000E+00  4.83456000E-01  1.45585000E-01
  4.38000000E-02  6.26000000E-01  4.56324000E+03  6.82024000E+02  1.54973000E+02
  4.44553000E+01  1.30290000E+01  1.82773000E+00  2.09642000E+01  4.80331000E+00
  1.45933000E+00  4.83456000E-01  1.45585000E-01  4.38000000E-02  6.26000000E-01
  4.56324000E+03  6.82024000E+02  1.54973000E+02  4.44553000E+01  1.30290000E+01
  1.82773000E+00  2.09642000E+01  4.80331000E+00  1.45933000E+00  4.83456000E-01
  1.45585000E-01  4.38000000E-02  6.26000000E-01  4.56324000E+03  6.82024000E+02
  1.54973000E+02  4.44553000E+01  1.30290000E+01  1.82773000E+00  2.09642000E+01
  4.80331000E+00  1.45933000E+00  4.83456000E-01  1.45585000E-01  4.38000000E-02
  6.26000000E-01  3.38650000E+01  5.09479000E+00  1.15879000E+00  3.25840000E-01
  1.02741000E-01  3.60000000E-02  7.50000000E-01  3.38650000E+01  5.09479000E+00
  1.15879000E+00  3.25840000E-01  1.02741000E-01  3.60000000E-02  7.50000000E-01
  3.38650000E+01  5.09479000E+00  1.15879000E+00  3.25840000E-01  1.02741000E-01
  3.60000000E-02  7.50000000E-01  3.38650000E+01  5.09479000E+00  1.15879000E+00
  3.25840000E-01  1.02741000E-01  3.60000000E-02  7.50000000E-01  3.38650000E+01
  5.09479000E+00  1.15879000E+00  3.25840000E-01  1.02741000E-01  3.60000000E-02
  7.50000000E-01  3.38650000E+01  5.09479000E+00  1.15879000E+00  3.25840000E-01
  1.02741000E-01  3.60000000E-02  7.50000000E-01  4.56324000E+03  6.82024000E+02
  1.54973000E+02  4.44553000E+01  1.30290000E+01  1.82773000E+00  2.09642000E+01
  4.80331000E+00  1.45933000E+00  4.83456000E-01  1.45585000E-01  4.38000000E-02
  6.26000000E-01  3.38650000E+01  5.09479000E+00  1.15879000E+00  3.25840000E-01
  1.02741000E-01  3.60000000E-02  7.50000000E-01  3.38650000E+01  5.09479000E+00
  1.15879000E+00  3.25840000E-01  1.02741000E-01  3.60000000E-02  7.50000000E-01
Contraction coefficients                   R   N=         160
  1.96665025E-03  1.52306019E-02  7.61269097E-02  2.60801033E-01  6.16462078E-01
  2.21006028E-01  1.14660081E-01  9.19999648E-01 -3.03068213E-03  1.00000000E+00
  1.00000000E+00  1.00000000E+00  1.00000000E+00  1.96665025E-03  1.52306019E-02
  7.61269097E-02  2.60801033E-01  6.16462078E-01  2.21006028E-01  1.14660081E-01
  9.19999648E-01 -3.03068213E-03  1.00000000E+00  1.00000000E+00  1.00000000E+00
  1.00000000E+00  1.96665025E-03  1.52306019E-02  7.61269097E-02  2.60801033E-01
  6.16462078E-01  2.21006028E-01  1.14660081E-01  9.19999648E-01 -3.03068213E-03
  1.00000000E+00  1.00000000E+00  1.00000000E+00  1.00000000E+00  1.96665025E-03
  1.52306019E-02  7.61269097E-02  2.60801033E-01  6.16462078E-01  2.21006028E-01
  1.14660081E-01  9.19999648E-01 -3.03068213E-03  1.00000000E+00  1.00000000E+00
  1.00000000E+00  1.00000000E+00  1.96665025E-03  1.52306019E-02  7.61269097E-02
  2.60801033E-01  6.16462078E-01  2.21006028E-01  1.14660081E-01  9.19999648E-01
 -3.03068213E-03  1.00000000E+00  1.00000000E+00  1.00000000E+00  1.00000000E+00
  1.96665025E-03  1.52306019E-02  7.61269097E-02  2.60801033E-01  6.16462078E-01
  2.21006028E-01  1.14660081E-01  9.19999648E-01 -3.03068213E-03  1.00000000E+00
  1.00000000E+00  1.00000000E+00  1.00000000E+00  1.96665025E-03  1.52306019E-02
  7.61269097E-02  2.60801033E-01  6.16462078E-01  2.21006028E-01  1.14660081E-01
  9.19999648E-01 -3.03068213E-03  1.00000000E+00  1.00000000E+00  1.00000000E+00
  1.00000000E+00  2.54938145E-02  1.90373109E-01  8.52161486E-01  1.00000000E+00
  1.00000000E+00  1.00000000E+00  1.00000000E+00  2.54938145E-02  1.90373109E-01
  8.52161486E-01  1.00000000E+00  1.00000000E+00  1.00000000E+00  1.00000000E+00
  2.54938145E-02  1.90373109E-01  8.52161486E-01  1.00000000E+00  1.00000000E+00
  1.00000000E+00  1.00000000E+00  2.54938145E-02  1.90373109E-01  8.52161486E-01
  1.00000000E+00  1.00000000E+00  1.00000000E+00  1.00000000E+00  2.54938145E-02
  1.90373109E-01  8.52161486E-01  1.00000000E+00  1.00000000E+00  1.00000000E+00
  1.00000000E+00  2.54938145E-02  1.90373109E-01  8.52161486E-01  1.00000000E+00
  1.00000000E+00  1.00000000E+00  1.00000000E+00  1.96665025E-03  1.52306019E-02
  7.61269097E-02  2.60801033E-01  6.16462078E-01  2.21006028E-01  1.14660081E-01
  9.19999648E-01 -3.03068213E-03  1.00000000E+00  1.00000000E+00  1.00000000E+00
  1.00000000E+00  2.54938145E-02  1.90373109E-01  8.52161486E-01  1.00000000E+00
  1.00000000E+00  1.00000000E+00  1.00000000E+00  2.54938145E-02  1.90373109E-01
  8.52161486E-01  1.00000000E+00  1.00000000E+00  1.00000000E+00  1.00000000E+00
P(S=P) Contraction coefficients            R   N=         160
  0.00000000E+00  0.00000000E+00  0.00000000E+00  0.00000000E+00  0.00000000E+00
  0.00000000E+00  4.02486927E-02  2.37593957E-01  8.15853851E-01  1.00000000E+00
  1.00000000E+00  1.00000000E+00  0.00000000E+00  0.00000000E+00  0.00000000E+00
  0.00000000E+00  0.00000000E+00  0.00000000E+00  0.00000000E+00  4.02486927E-02
  2.37593957E-01  8.15853851E-01  1.00000000E+00  1.00000000E+00  1.00000000E+00
  0.00000000E+00  0.00000000E+00  0.00000000E+00  0.00000000E+00  0.00000000E+00
  0.00000000E+00  0.00000000E+00  4.02486927E-02  2.37593957E-01  8.15853851E-01
  1.00000000E+00  1.00000000E+00  1.00000000E+00  0.00000000E+00  0.00000000E+00
  0.00000000E+00  0.00000000E+00  0.00000000E+00  0.00000000E+00  0.00000000E+00
  4.02486927E-02  2.37593957E-01  8.15853851E-01  1.00000000E+00  1.00000000E+00
  1.00000000E+00  0.00000000E+00  0.00000000E+00  0.00000000E+00  0.00000000E+00
  0.00000000E+00  0.00000000E+00  0.00000000E+00  4.02486927E-02  2.37593957E-01
  8.15853851E-01  1.00000000E+00  1.00000000E+00  1.00000000E+00  0.00000000E+00
  0.00000000E+00  0.00000000E+00  0.00000000E+00  0.00000000E+00  0.00000000E+00
  0.00000000E+00  4.02486927E-02  2.37593957E-01  8.15853851E-01  1.00000000E+00
  1.00000000E+00  1.00000000E+00  0.00000000E+00  0.00000000E+00  0.00000000E+00
  0.00000000E+00  0.00000000E+00  0.00000000E+00  0.00000000E+00  4.02486927E-02
  2.37593957E-01  8.15853851E-01  1.00000000E+00  1.00000000E+00  1.00000000E+00
  0.00000000E+00  0.00000000E+00  0.00000000E+00  0.00000000E+00  0.00000000E+00
  0.00000000E+00  0.00000000E+00  0.00000000E+00  0.00000000E+00  0.00000000E+00
  0.00000000E+00  0.00000000E+00  0.00000000E+00  0.00000000E+00  0.00000000E+00
  0.00000000E+00  0.00000000E+00  0.00000000E+00  0.00000000E+00  0.00000000E+00
  0.00000000E+00  0.00000000E+00  0.00000000E+00  0.00000000E+00  0.00000000E+00
  0.00000000E+00  0.00000000E+00  0.00000000E+00  0.00000000E+00  0.00000000E+00
  0.00000000E+00  0.00000000E+00  0.00000000E+00  0.00000000E+00  0.00000000E+00
  0.00000000E+00  0.00000000E+00  0.00000000E+00  0.00000000E+00  0.00000000E+00
  0.00000000E+00  0.00000000E+00  0.00000000E+00  0.00000000E+00  0.00000000E+00
  0.00000000E+00  0.00000000E+00  0.00000000E+00  0.00000000E+00  4.02486927E-02
  2.37593957E-01  8.15853851E-01  1.00000000E+00  1.00000000E+00  1.00000000E+00
  0.00000000E+00  0.00000000E+00  0.00000000E+00  0.00000000E+00  0.00000000E+00
  0.00000000E+00  0.00000000E+00  0.00000000E+00  0.00000000E+00  0.00000000E+00
  0.00000000E+00  0.00000000E+00  0.00000000E+00  0.00000000E+00  0.00000000E+00
Coordinates of each shell                  R   N=         264
  1.27801095E+00 -3.56975694E+00  1.35259406E-31  1.27801095E+00 -3.56975694E+00
  1.35259406E-31  1.27801095E+00 -3.56975694E+00  1.35259406E-31  1.27801095E+00
 -3.56975694E+00  1.35259406E-31  1.27801095E+00 -3.56975694E+00  1.35259406E-31
  1.27801095E+00 -3.56975694E+00  1.35259406E-31  2.95723841E+00 -1.41103005E+00
  1.44136909E-31  2.95723841E+00 -1.41103005E+00  1.44136909E-31  2.95723841E+00
 -1.41103005E+00  1.44136909E-31  2.95723841E+00 -1.41103005E+00  1.44136909E-31
  2.95723841E+00 -1.41103005E+00  1.44136909E-31  2.95723841E+00 -1.41103005E+00
  1.44136909E-31 -1.27728996E+00 -3.57020691E+00  4.07809527E-32 -1.27728996E+00
 -3.57020691E+00  4.07809527E-32 -1.27728996E+00 -3.57020691E+00  4.07809527E-32
 -1.27728996E+00 -3.57020691E+00  4.07809527E-32 -1.27728996E+00 -3.57020691E+00
  4.07809527E-32 -1.27728996E+00 -3.57020691E+00  4.07809527E-32 -2.95702990E+00
 -1.41174864E+00 -7.45423320E-32 -2.95702990E+00 -1.41174864E+00 -7.45423320E-32
 -2.95702990E+00 -1.41174864E+00 -7.45423320E-32 -2.95702990E+00 -1.41174864E+00
 -7.45423320E-32 -2.95702990E+00 -1.41174864E+00 -7.45423320E-32 -2.95702990E+00
 -1.41174864E+00 -7.45423320E-32 -2.42258722E+00  1.08646747E+00 -1.16365570E-31
 -2.42258722E+00  1.08646747E+00 -1.16365570E-31 -2.42258722E+00  1.08646747E+00
 -1.16365570E-31 -2.42258722E+00  1.08646747E+00 -1.16365570E-31 -2.42258722E+00
  1.08646747E+00 -1.16365570E-31 -2.42258722E+00  1.08646747E+00 -1.16365570E-31
 -3.64211846E-32  2.42822992E+00 -5.98604890E-32 -3.64211846E-32  2.42822992E+00
 -5.98604890E-32 -3.64211846E-32  2.42822992E+00 -5.98604890E-32 -3.64211846E-32
  2.42822992E+00 -5.98604890E-32 -3.64211846E-32  2.42822992E+00 -5.98604890E-32
 -3.64211846E-32  2.42822992E+00 -5.98604890E-32  2.42247595E+00  1.08721242E+00
  6.27761086E-32  2.42247595E+00  1.08721242E+00  6.27761086E-32  2.42247595E+00
  1.08721242E+00  6.27761086E-32  2.42247595E+00  1.08721242E+00  6.27761086E-32
  2.42247595E+00  1.08721242E+00  6.27761086E-32  2.42247595E+00  1.08721242E+00
  6.27761086E-32 -4.04737385E+00  2.34349993E+00 -2.07434937E-31 -4.04737385E+00
  2.34349993E+00 -2.07434937E-31 -4.04737385E+00  2.34349993E+00 -2.07434937E-31
 -4.04737385E+00  2.34349993E+00 -2.07434937E-31 -4.04737385E+00  2.34349993E+00
 -2.07434937E-31  4.04741166E+00  2.34402406E+00  9.18799468E-32  4.04741166E+00
  2.34402406E+00  9.18799468E-32  4.04741166E+00  2.34402406E+00  9.18799468E-32
  4.04741166E+00  2.34402406E+00  9.18799468E-32  4.04741166E+00  2.34402406E+00
  9.18799468E-32  4.95385128E+00 -1.88899831E+00  2.29750198E-31  4.95385128E+00
 -1.88899831E+00  2.29750198E-31  4.95385128E+00 -1.88899831E+00  2.29750198E-31
  4.95385128E+00 -1.88899831E+00  2.29750198E-31  4.95385128E+00 -1.88899831E+00
  2.29750198E-31  2.20923790E+00 -5.39819162E+00  2.14768576E-31  2.20923790E+00
 -5.39819162E+00  2.14768576E-31  2.20923790E+00 -5.39819162E+00  2.14768576E-31
  2.20923790E+00 -5.39819162E+00  2.14768576E-31  2.20923790E+00 -5.39819162E+00
  2.14768576E-31 -2.20794213E+00 -5.39891953E+00  5.14486783E-32 -2.20794213E+00
 -5.39891953E+00  5.14486783E-32 -2.20794213E+00 -5.39891953E+00  5.14486783E-32
 -2.20794213E+00 -5.39891953E+00  5.14486783E-32 -2.20794213E+00 -5.39891953E+00
  5.14486783E-32 -4.95357088E+00 -1.88997612E+00 -1.36580917E-31 -4.95357088E+00
 -1.88997612E+00 -1.36580917E-31 -4.95357088E+00 -1.88997612E+00 -1.36580917E-31
 -4.95357088E+00 -1.88997612E+00 -1.36580917E-31 -4.95357088E+00 -1.88997612E+00
 -1.36580917E-31 -7.22088951E-04  4.98955149E+00 -1.23028642E-31 -7.22088951E-04
  4.98955149E+00 -1.23028642E-31 -7.22088951E-04  4.98955149E+00 -1.23028642E-31
 -7.22088951E-04  4.98955149E+00 -1.23028642E-31 -7.22088951E-04  4.98955149E+00
 -1.23028642E-31 -7.22088951E-04  4.98955149E+00 -1.23028642E-31  1.74448715E+00
  6.05864908E+00 -8.48498383E-32  1.74448715E+00  6.05864908E+00 -8.48498383E-32
  1.74448715E+00  6.05864908E+00 -8.48498383E-32  1.74448715E+00  6.05864908E+00
 -8.48498383E-32  1.74448715E+00  6.05864908E+00 -8.48498383E-32 -1.74667795E+00
  6.05759999E+00 -2.13919773E-31 -1.74667795E+00  6.05759999E+00 -2.13919773E-31
 -1.74667795E+00  6.05759999E+00 -2.13919773E-31 -1.74667795E+00  6.05759999E+00
 -2.13919773E-31 -1.74667795E+00  6.05759999E+00 -2.13919773E-31
Constraint Structure                       R   N=          48
  1.27801095E+00 -3.56975694E+00  1.35259406E-31  2.95723841E+00 -1.41103005E+00
  1.44136909E-31 -1.27728996E+00 -3.57020691E+00  4.07809527E-32 -2.95702990E+00
 -1.41174864E+00 -7.45423320E-32 -2.42258722E+00  1.08646747E+00 -1.16365570E-31
 -3.64211846E-32  2.42822992E+00 -5.98604890E-32  2.42247595E+00  1.08721242E+00
  6.27761086E-32 -4.04737385E+00  2.34349993E+00 -2.07434937E-31  4.04741166E+00
  2.34402406E+00  9.18799468E-32  4.95385128E+00 -1.88899831E+00  2.29750198E-31
  2.20923790E+00 -5.39819162E+00  2.14768576E-31 -2.20794213E+00 -5.39891953E+00
  5.14486783E-32 -4.95357088E+00 -1.88997612E+00 -1.36580917E-31 -7.22088951E-04
  4.98955149E+00 -1.23028642E-31  1.74448715E+00  6.05864908E+00 -8.48498383E-32
 -1.74667795E+00  6.05759999E+00 -2.13919773E-31
Num ILSW                                   I              100
ILSW                                       I   N=         100
           0           0           0           0           2           0
           0           0           0           0           0          -1
           0           0           0           0           0           0
           0           0           0           0           0           0
           1           0           0           0           0           0
           0           0      100000           0          -1           0
           0           0           0           0           0           0
           0           0           0           1           0           0
           0           0           1           0           0           0
           0           0           4          40           0           0
           0           0           0           0           0           0
           0           0           0           0           0           0
           0           0           0           0           0           0
           0           0           0           0           0           0
           0           0           0           0           0           0
           0           0           0           0           0           0
           0           0           0           0
Num RLSW                                   I               40
RLSW                                       R   N=          40
  1.00000000E+00  1.00000000E+00  1.00000000E+00  1.00000000E+00  1.00000000E+00
  0.00000000E+00  0.00000000E+00  1.00000000E+00  0.00000000E+00  0.00000000E+00
  0.00000000E+00  0.00000000E+00  1.00000000E+00  0.00000000E+00  0.00000000E+00
  0.00000000E+00  0.00000000E+00  1.00000000E+00  0.00000000E+00  0.00000000E+00
  0.00000000E+00  0.00000000E+00  1.00000000E+00  0.00000000E+00  0.00000000E+00
  0.00000000E+00  0.00000000E+00  1.00000000E+00  0.00000000E+00  0.00000000E+00
  0.00000000E+00  0.00000000E+00  0.00000000E+00  0.00000000E+00  0.00000000E+00
  0.00000000E+00  0.00000000E+00  0.00000000E+00  1.00000000E+00  1.00000000E+00
MxBond                                     I                3
NBond                                      I   N=          16
           3           3           3           3           3           3
           3           1           1           1           1           1
           1           3           1           1
IBond                                      I   N=          48
           2           3          11           1           7          10
           1           4          12           3           5          13
           4           6           8           5           7          14
           2           6           9           5           0           0
           7           0           0           2           0           0
           1           0           0           3           0           0
           4           0           0           6          15          16
          14           0           0          14           0           0
RBond                                      R   N=          48
  1.00000000E+00  2.00000000E+00  1.00000000E+00  1.00000000E+00  2.00000000E+00
  1.00000000E+00  2.00000000E+00  1.00000000E+00  1.00000000E+00  1.00000000E+00
  2.00000000E+00  1.00000000E+00  2.00000000E+00  1.00000000E+00  1.00000000E+00
  1.00000000E+00  1.00000000E+00  2.00000000E+00  2.00000000E+00  1.00000000E+00
  1.00000000E+00  1.00000000E+00  0.00000000E+00  0.00000000E+00  1.00000000E+00
  0.00000000E+00  0.00000000E+00  1.00000000E+00  0.00000000E+00  0.00000000E+00
  1.00000000E+00  0.00000000E+00  0.00000000E+00  1.00000000E+00  0.00000000E+00
  0.00000000E+00  1.00000000E+00  0.00000000E+00  0.00000000E+00  2.00000000E+00
  1.00000000E+00  1.00000000E+00  1.00000000E+00  0.00000000E+00  0.00000000E+00
  1.00000000E+00  0.00000000E+00  0.00000000E+00
Virial Ratio                               R      2.001245034137797E+00
SCF Energy                                 R     -3.076069473488344E+02
MP2 Energy                                 R     -3.087113455537833E+02
Total Energy                               R     -3.087113455537833E+02
Post-SCF wavefunction norm                 R      1.188093716545557E+00
RMS Density                                R      5.297414409380801E-09
External E-field                           R   N=          35
  0.00000000E+00  0.00000000E+00  0.00000000E+00  0.00000000E+00  0.00000000E+00
  0.00000000E+00  0.00000000E+00  0.00000000E+00  0.00000000E+00  0.00000000E+00
  0.00000000E+00  0.00000000E+00  0.00000000E+00  0.00000000E+00  0.00000000E+00
  0.00000000E+00  0.00000000E+00  0.00000000E+00  0.00000000E+00  0.00000000E+00
  0.00000000E+00  0.00000000E+00  0.00000000E+00  0.00000000E+00  0.00000000E+00
  0.00000000E+00  0.00000000E+00  0.00000000E+00  0.00000000E+00  0.00000000E+00
  0.00000000E+00  0.00000000E+00  0.00000000E+00  0.00000000E+00  0.00000000E+00
IOpCl                                      I                0
IROHF                                      I                0
Alpha Orbital Energies                     R   N=         232
 -1.12576359E+01 -1.12501216E+01 -1.12500707E+01 -1.12467490E+01 -1.12458268E+01
 -1.12454141E+01 -1.12448040E+01 -1.12226357E+01 -1.14327572E+00 -1.07531203E+00
 -1.05483748E+00 -9.65677093E-01 -8.84578197E-01 -8.34010893E-01 -7.30789575E-01
 -7.18165774E-01 -6.92708135E-01 -6.21535814E-01 -6.09546301E-01 -5.82562427E-01
 -5.67588561E-01 -5.22761519E-01 -5.14580467E-01 -5.02165404E-01 -4.80937731E-01
 -4.10991475E-01 -3.89059990E-01 -2.64084371E-01  3.83724098E-02  4.62644368E-02
  4.89958656E-02  5.84560024E-02  6.23957177E-02  6.43266048E-02  8.35475722E-02
  8.37164219E-02  8.75773586E-02  1.11355009E-01  1.26955347E-01  1.34737973E-01
  1.43549939E-01  1.49064091E-01  1.59670224E-01  1.70325592E-01  1.75182790E-01
  1.77566036E-01  1.84895493E-01  1.91285175E-01  1.93012268E-01  1.97383051E-01
  2.00428993E-01  2.04056891E-01  2.05469228E-01  2.09191096E-01  2.15307290E-01
  2.21529898E-01  2.28128697E-01  2.35918162E-01  2.38212710E-01  2.49585301E-01
  2.51318387E-01  2.77691301E-01  2.84263971E-01  2.84613568E-01  2.97259429E-01
  3.16243795E-01  3.25852057E-01  3.29019496E-01  3.31680652E-01  3.34264539E-01
  3.37522964E-01  3.42255346E-01  3.72701306E-01  3.76248818E-01  3.96156733E-01
  4.13899224E-01  4.20105993E-01  4.20471866E-01  4.43787810E-01  4.47571715E-01
  4.60139175E-01  4.99971848E-01  5.37727744E-01  5.66494804E-01  5.70201727E-01
  5.78739762E-01  5.90799944E-01  6.06256702E-01  6.97759716E-01  7.10469832E-01
  7.18239877E-01  7.32297565E-01  7.33616840E-01  7.37295086E-01  7.48890232E-01
  7.54062013E-01  7.66131842E-01  7.67622367E-01  7.85866485E-01  8.11282393E-01
  8.22070824E-01  8.45082423E-01  8.45679564E-01  8.71979158E-01  8.86619962E-01
  9.10107928E-01  9.13698746E-01  9.45331426E-01  9.48256102E-01  9.85865539E-01
  9.99031021E-01  1.00611325E+00  1.01209857E+00  1.02785681E+00  1.04789553E+00
  1.06282451E+00  1.06609133E+00  1.08977844E+00  1.10384952E+00  1.12744846E+00
  1.15468520E+00  1.16876413E+00  1.17642274E+00  1.19328450E+00  1.19548940E+00
  1.23733344E+00  1.24280794E+00  1.27549870E+00  1.27574177E+00  1.27574829E+00
  1.29542595E+00  1.33857363E+00  1.36059263E+00  1.40090992E+00  1.41038507E+00
  1.45274290E+00  1.65520663E+00  1.69939011E+00  1.71852270E+00  1.72466609E+00