O                                                                       
SP        RMP2-FC                                                     6-311++G(d,p)       
Number of atoms                            I                9
Info1-9                                    I   N=           9
          16          16           0           0           0         110
           1           2           1
Full Title                                 C   N=           1
O           
Route                                      C   N=           3
#P MP2/6-311++G** nosymm Density=MP2
Charge                                     I                0
Multiplicity                               I                1
Number of electrons                        I               36
Number of alpha electrons                  I               18
Number of beta electrons                   I               18
Number of basis functions                  I              138
Number of independent functions            I              138
Number of point charges in /Mol/           I                0
Number of translation vectors              I                0
Atomic numbers                             I   N=           9
           6           6           6           8           6           1
           1           1           1
Nuclear charges                            R   N=           9
  6.00000000E+00  6.00000000E+00  6.00000000E+00  8.00000000E+00  6.00000000E+00
  1.00000000E+00  1.00000000E+00  1.00000000E+00  1.00000000E+00
Current cartesian coordinates              R   N=          27
  1.35621685E+00 -1.80989667E+00  0.00000000E+00 -1.35621685E+00 -1.80989667E+00
  0.00000000E+00 -2.06952240E+00  6.55589513E-01  0.00000000E+00  0.00000000E+00
  2.18929702E+00  0.00000000E+00  2.06952240E+00  6.55589513E-01  0.00000000E+00
  2.59535761E+00 -3.42739087E+00  0.00000000E+00 -2.59535761E+00 -3.42739087E+00
  0.00000000E+00 -3.87348721E+00  1.59604957E+00  0.00000000E+00  3.87348721E+00
  1.59604957E+00  0.00000000E+00
Number of symbols in /Mol/                 I                0
Force Field                                I                0
Atom Types                                 C   N=           9
                                                            
                                                
Int Atom Types                             I   N=           9
           0           0           0           0           0           0
           0           0           0
MM charges                                 R   N=           9
  0.00000000E+00  0.00000000E+00  0.00000000E+00  0.00000000E+00  0.00000000E+00
  0.00000000E+00  0.00000000E+00  0.00000000E+00  0.00000000E+00
Integer atomic weights                     I   N=           9
          12          12          12          16          12           1
           1           1           1
Real atomic weights                        R   N=           9
  1.20000000E+01  1.20000000E+01  1.20000000E+01  1.59949146E+01  1.20000000E+01
  1.00782504E+00  1.00782504E+00  1.00782504E+00  1.00782504E+00
Atom fragment info                         I   N=           9
           0           0           0           0           0           0
           0           0           0
Atom residue num                           I   N=           9
           0           0           0           0           0           0
           0           0           0
Nuclear spins                              I   N=           9
           0           0           0           0           0           1
           1           1           1
Nuclear ZEff                               R   N=           9
 -3.60000000E+00 -3.60000000E+00 -3.60000000E+00 -5.60000000E+00 -3.60000000E+00
 -1.00000000E+00 -1.00000000E+00 -1.00000000E+00 -1.00000000E+00
Nuclear ZNuc                               R   N=           9
  6.00000000E+00  6.00000000E+00  6.00000000E+00  8.00000000E+00  6.00000000E+00
  1.00000000E+00  1.00000000E+00  1.00000000E+00  1.00000000E+00
Nuclear QMom                               R   N=           9
  0.00000000E+00  0.00000000E+00  0.00000000E+00  0.00000000E+00  0.00000000E+00
  0.00000000E+00  0.00000000E+00  0.00000000E+00  0.00000000E+00
Nuclear GFac                               R   N=           9
  0.00000000E+00  0.00000000E+00  0.00000000E+00  0.00000000E+00  0.00000000E+00
  2.79284600E+00  2.79284600E+00  2.79284600E+00  2.79284600E+00
MicOpt                                     I   N=           9
          -1          -1          -1          -1          -1          -1
          -1          -1          -1
Number of residues                         I                0
Number of secondary structures             I                0
Number of contracted shells                I               50
Number of primitive shells                 I               93
Pure/Cartesian d shells                    I                0
Pure/Cartesian f shells                    I                0
Highest angular momentum                   I                2
Largest degree of contraction              I                6
Shell types                                I   N=          50
           0          -1          -1          -1          -1          -2
           0          -1          -1          -1          -1          -2
           0          -1          -1          -1          -1          -2
           0          -1          -1          -1          -1          -2
           0          -1          -1          -1          -1          -2
           0           0           0           0           1           0
           0           0           0           1           0           0
           0           0           1           0           0           0
           0           1
Number of primitives per shell             I   N=          50
           6           3           1           1           1           1
           6           3           1           1           1           1
           6           3           1           1           1           1
           6           3           1           1           1           1
           6           3           1           1           1           1
           3           1           1           1           1           3
           1           1           1           1           3           1
           1           1           1           3           1           1
           1           1
Shell to atom map                          I   N=          50
           1           1           1           1           1           1
           2           2           2           2           2           2
           3           3           3           3           3           3
           4           4           4           4           4           4
           5           5           5           5           5           5
           6           6           6           6           6           7
           7           7           7           7           8           8
           8           8           8           9           9           9
           9           9
Primitive exponents                        R   N=          93
  4.56324000E+03  6.82024000E+02  1.54973000E+02  4.44553000E+01  1.30290000E+01
  1.82773000E+00  2.09642000E+01  4.80331000E+00  1.45933000E+00  4.83456000E-01
  1.45585000E-01  4.38000000E-02  6.26000000E-01  4.56324000E+03  6.82024000E+02
  1.54973000E+02  4.44553000E+01  1.30290000E+01  1.82773000E+00  2.09642000E+01
  4.80331000E+00  1.45933000E+00  4.83456000E-01  1.45585000E-01  4.38000000E-02
  6.26000000E-01  4.56324000E+03  6.82024000E+02  1.54973000E+02  4.44553000E+01
  1.30290000E+01  1.82773000E+00  2.09642000E+01  4.80331000E+00  1.45933000E+00
  4.83456000E-01  1.45585000E-01  4.38000000E-02  6.26000000E-01  8.58850000E+03
  1.29723000E+03  2.99296000E+02  8.73771000E+01  2.56789000E+01  3.74004000E+00
  4.21175000E+01  9.62837000E+00  2.85332000E+00  9.05661000E-01  2.55611000E-01
  8.45000000E-02  1.29200000E+00  4.56324000E+03  6.82024000E+02  1.54973000E+02
  4.44553000E+01  1.30290000E+01  1.82773000E+00  2.09642000E+01  4.80331000E+00
  1.45933000E+00  4.83456000E-01  1.45585000E-01  4.38000000E-02  6.26000000E-01
  3.38650000E+01  5.09479000E+00  1.15879000E+00  3.25840000E-01  1.02741000E-01
  3.60000000E-02  7.50000000E-01  3.38650000E+01  5.09479000E+00  1.15879000E+00
  3.25840000E-01  1.02741000E-01  3.60000000E-02  7.50000000E-01  3.38650000E+01
  5.09479000E+00  1.15879000E+00  3.25840000E-01  1.02741000E-01  3.60000000E-02
  7.50000000E-01  3.38650000E+01  5.09479000E+00  1.15879000E+00  3.25840000E-01
  1.02741000E-01  3.60000000E-02  7.50000000E-01
Contraction coefficients                   R   N=          93
  1.96665025E-03  1.52306019E-02  7.61269097E-02  2.60801033E-01  6.16462078E-01
  2.21006028E-01  1.14660081E-01  9.19999648E-01 -3.03068213E-03  1.00000000E+00
  1.00000000E+00  1.00000000E+00  1.00000000E+00  1.96665025E-03  1.52306019E-02
  7.61269097E-02  2.60801033E-01  6.16462078E-01  2.21006028E-01  1.14660081E-01
  9.19999648E-01 -3.03068213E-03  1.00000000E+00  1.00000000E+00  1.00000000E+00
  1.00000000E+00  1.96665025E-03  1.52306019E-02  7.61269097E-02  2.60801033E-01
  6.16462078E-01  2.21006028E-01  1.14660081E-01  9.19999648E-01 -3.03068213E-03
  1.00000000E+00  1.00000000E+00  1.00000000E+00  1.00000000E+00  1.89515008E-03
  1.43859006E-02  7.07320031E-02  2.40001011E-01  5.94797026E-01  2.80802012E-01
  1.13889012E-01  9.20811101E-01 -3.27447036E-03  1.00000000E+00  1.00000000E+00
  1.00000000E+00  1.00000000E+00  1.96665025E-03  1.52306019E-02  7.61269097E-02
  2.60801033E-01  6.16462078E-01  2.21006028E-01  1.14660081E-01  9.19999648E-01
 -3.03068213E-03  1.00000000E+00  1.00000000E+00  1.00000000E+00  1.00000000E+00
  2.54938145E-02  1.90373109E-01  8.52161486E-01  1.00000000E+00  1.00000000E+00
  1.00000000E+00  1.00000000E+00  2.54938145E-02  1.90373109E-01  8.52161486E-01
  1.00000000E+00  1.00000000E+00  1.00000000E+00  1.00000000E+00  2.54938145E-02
  1.90373109E-01  8.52161486E-01  1.00000000E+00  1.00000000E+00  1.00000000E+00
  1.00000000E+00  2.54938145E-02  1.90373109E-01  8.52161486E-01  1.00000000E+00
  1.00000000E+00  1.00000000E+00  1.00000000E+00
P(S=P) Contraction coefficients            R   N=          93
  0.00000000E+00  0.00000000E+00  0.00000000E+00  0.00000000E+00  0.00000000E+00
  0.00000000E+00  4.02486927E-02  2.37593957E-01  8.15853851E-01  1.00000000E+00
  1.00000000E+00  1.00000000E+00  0.00000000E+00  0.00000000E+00  0.00000000E+00
  0.00000000E+00  0.00000000E+00  0.00000000E+00  0.00000000E+00  4.02486927E-02
  2.37593957E-01  8.15853851E-01  1.00000000E+00  1.00000000E+00  1.00000000E+00
  0.00000000E+00  0.00000000E+00  0.00000000E+00  0.00000000E+00  0.00000000E+00
  0.00000000E+00  0.00000000E+00  4.02486927E-02  2.37593957E-01  8.15853851E-01
  1.00000000E+00  1.00000000E+00  1.00000000E+00  0.00000000E+00  0.00000000E+00
  0.00000000E+00  0.00000000E+00  0.00000000E+00  0.00000000E+00  0.00000000E+00
  3.65113974E-02  2.37152983E-01  8.19701941E-01  1.00000000E+00  1.00000000E+00
  1.00000000E+00  0.00000000E+00  0.00000000E+00  0.00000000E+00  0.00000000E+00
  0.00000000E+00  0.00000000E+00  0.00000000E+00  4.02486927E-02  2.37593957E-01
  8.15853851E-01  1.00000000E+00  1.00000000E+00  1.00000000E+00  0.00000000E+00
  0.00000000E+00  0.00000000E+00  0.00000000E+00  0.00000000E+00  0.00000000E+00
  0.00000000E+00  0.00000000E+00  0.00000000E+00  0.00000000E+00  0.00000000E+00
  0.00000000E+00  0.00000000E+00  0.00000000E+00  0.00000000E+00  0.00000000E+00
  0.00000000E+00  0.00000000E+00  0.00000000E+00  0.00000000E+00  0.00000000E+00
  0.00000000E+00  0.00000000E+00  0.00000000E+00  0.00000000E+00  0.00000000E+00
  0.00000000E+00  0.00000000E+00  0.00000000E+00
Coordinates of each shell                  R   N=         150
  1.35621685E+00 -1.80989667E+00  0.00000000E+00  1.35621685E+00 -1.80989667E+00
  0.00000000E+00  1.35621685E+00 -1.80989667E+00  0.00000000E+00  1.35621685E+00
 -1.80989667E+00  0.00000000E+00  1.35621685E+00 -1.80989667E+00  0.00000000E+00
  1.35621685E+00 -1.80989667E+00  0.00000000E+00 -1.35621685E+00 -1.80989667E+00
  0.00000000E+00 -1.35621685E+00 -1.80989667E+00  0.00000000E+00 -1.35621685E+00
 -1.80989667E+00  0.00000000E+00 -1.35621685E+00 -1.80989667E+00  0.00000000E+00
 -1.35621685E+00 -1.80989667E+00  0.00000000E+00 -1.35621685E+00 -1.80989667E+00
  0.00000000E+00 -2.06952240E+00  6.55589513E-01  0.00000000E+00 -2.06952240E+00
  6.55589513E-01  0.00000000E+00 -2.06952240E+00  6.55589513E-01  0.00000000E+00
 -2.06952240E+00  6.55589513E-01  0.00000000E+00 -2.06952240E+00  6.55589513E-01
  0.00000000E+00 -2.06952240E+00  6.55589513E-01  0.00000000E+00  0.00000000E+00
  2.18929702E+00  0.00000000E+00  0.00000000E+00  2.18929702E+00  0.00000000E+00
  0.00000000E+00  2.18929702E+00  0.00000000E+00  0.00000000E+00  2.18929702E+00
  0.00000000E+00  0.00000000E+00  2.18929702E+00  0.00000000E+00  0.00000000E+00
  2.18929702E+00  0.00000000E+00  2.06952240E+00  6.55589513E-01  0.00000000E+00
  2.06952240E+00  6.55589513E-01  0.00000000E+00  2.06952240E+00  6.55589513E-01
  0.00000000E+00  2.06952240E+00  6.55589513E-01  0.00000000E+00  2.06952240E+00
  6.55589513E-01  0.00000000E+00  2.06952240E+00  6.55589513E-01  0.00000000E+00
  2.59535761E+00 -3.42739087E+00  0.00000000E+00  2.59535761E+00 -3.42739087E+00
  0.00000000E+00  2.59535761E+00 -3.42739087E+00  0.00000000E+00  2.59535761E+00
 -3.42739087E+00  0.00000000E+00  2.59535761E+00 -3.42739087E+00  0.00000000E+00
 -2.59535761E+00 -3.42739087E+00  0.00000000E+00 -2.59535761E+00 -3.42739087E+00
  0.00000000E+00 -2.59535761E+00 -3.42739087E+00  0.00000000E+00 -2.59535761E+00
 -3.42739087E+00  0.00000000E+00 -2.59535761E+00 -3.42739087E+00  0.00000000E+00
 -3.87348721E+00  1.59604957E+00  0.00000000E+00 -3.87348721E+00  1.59604957E+00
  0.00000000E+00 -3.87348721E+00  1.59604957E+00  0.00000000E+00 -3.87348721E+00
  1.59604957E+00  0.00000000E+00 -3.87348721E+00  1.59604957E+00  0.00000000E+00
  3.87348721E+00  1.59604957E+00  0.00000000E+00  3.87348721E+00  1.59604957E+00
  0.00000000E+00  3.87348721E+00  1.59604957E+00  0.00000000E+00  3.87348721E+00
  1.59604957E+00  0.00000000E+00  3.87348721E+00  1.59604957E+00  0.00000000E+00
Num ILSW                                   I              100
ILSW                                       I   N=         100
           0           0           0           0           2           0
           0           0           0           0           0          -1
           5           0           0           0           0           0
           0           0           0           0           0           0
           1           1           0           0           0           0
           0           0      100000           0          -1           0
           0           0           0           0           0           0
           0           0           0           1           0           0
           0 -2000000000           1           0           0           0
           0           0           4          52           0           0
           0           0           0           0           0           0
           0           0           0           9           0           1
           0           0           0           0           0           0
           0           0           0           0           0           0
           0           0           0           0           0           0
           0           0           0           0           0           0
           0           0           0           0
Num RLSW                                   I               52
RLSW                                       R   N=          52
  1.00000000E+00  1.00000000E+00  1.00000000E+00  1.00000000E+00  1.00000000E+00
  0.00000000E+00  0.00000000E+00  1.00000000E+00  0.00000000E+00  0.00000000E+00
  0.00000000E+00  0.00000000E+00  1.00000000E+00  0.00000000E+00  0.00000000E+00
  0.00000000E+00  0.00000000E+00  1.00000000E+00  0.00000000E+00  0.00000000E+00
  0.00000000E+00  0.00000000E+00  1.00000000E+00  0.00000000E+00  0.00000000E+00
  0.00000000E+00  0.00000000E+00  1.00000000E+00  0.00000000E+00  0.00000000E+00
  0.00000000E+00  0.00000000E+00  1.00000000E+00  0.00000000E+00  0.00000000E+00
  0.00000000E+00  0.00000000E+00  0.00000000E+00  1.00000000E+00  1.00000000E+00
  0.00000000E+00  1.00000000E+00  0.00000000E+00  0.00000000E+00  0.00000000E+00
  0.00000000E+00  0.00000000E+00  0.00000000E+00  0.00000000E+00  0.00000000E+00
  0.00000000E+00  0.00000000E+00
MxBond                                     I                3
NBond                                      I   N=           9
           3           3           3           2           3           1
           1           1           1
IBond                                      I   N=          27
           2           5           6           1           3           7
           2           4           8           3           5           0
           1           4           9           1           0           0
           2           0           0           3           0           0
           5           0           0
RBond                                      R   N=          27
  1.00000000E+00  2.00000000E+00  1.00000000E+00  1.00000000E+00  2.00000000E+00
  1.00000000E+00  2.00000000E+00  1.50000000E+00  1.00000000E+00  1.50000000E+00
  1.50000000E+00  0.00000000E+00  2.00000000E+00  1.50000000E+00  1.00000000E+00
  1.00000000E+00  0.00000000E+00  0.00000000E+00  1.00000000E+00  0.00000000E+00
  0.00000000E+00  1.00000000E+00  0.00000000E+00  0.00000000E+00  1.00000000E+00
  0.00000000E+00  0.00000000E+00
Virial Ratio                               R      2.001279473987682E+00
SCF Energy                                 R     -2.286830142370618E+02
MP2 Energy                                 R     -2.294359552287913E+02
Total Energy                               R     -2.294359552287913E+02
Post-SCF wavefunction norm                 R      1.118761545623978E+00
RMS Density                                R      3.251939450103014E-09
Job Status                                 I                1
Nuclear derivative order                   I                0
External E-field                           R   N=          35
  0.00000000E+00  0.00000000E+00  0.00000000E+00  0.00000000E+00  0.00000000E+00
  0.00000000E+00  0.00000000E+00  0.00000000E+00  0.00000000E+00  0.00000000E+00
  0.00000000E+00  0.00000000E+00  0.00000000E+00  0.00000000E+00  0.00000000E+00
  0.00000000E+00  0.00000000E+00  0.00000000E+00  0.00000000E+00  0.00000000E+00
  0.00000000E+00  0.00000000E+00  0.00000000E+00  0.00000000E+00  0.00000000E+00
  0.00000000E+00  0.00000000E+00  0.00000000E+00  0.00000000E+00  0.00000000E+00
  0.00000000E+00  0.00000000E+00  0.00000000E+00  0.00000000E+00  0.00000000E+00
IOpCl                                      I                0
IROHF                                      I                0
Alpha Orbital Energies                     R   N=         138
 -2.06242374E+01 -1.12917930E+01 -1.12917474E+01 -1.12351905E+01 -1.12342286E+01
 -1.46073880E+00 -1.08715578E+00 -1.00820351E+00 -8.09560850E-01 -7.83458962E-01
 -7.41628908E-01 -6.33117254E-01 -6.12418108E-01 -5.80276444E-01 -5.66724032E-01
 -5.42494976E-01 -3.99213136E-01 -3.22310117E-01  4.22410790E-02  4.85072929E-02
  5.49391355E-02  6.78606564E-02  1.04038684E-01  1.16217070E-01  1.29343875E-01
  1.50568403E-01  1.50710223E-01  1.51630515E-01  1.56218915E-01  1.61986438E-01
  1.80247946E-01  1.88429943E-01  1.96014378E-01  1.96943543E-01  1.97078305E-01
  2.10967703E-01  2.26036771E-01  2.26783611E-01  2.69510575E-01  2.79240761E-01
  3.22339525E-01  3.54503144E-01  3.62617161E-01  3.68331820E-01  3.86101399E-01
  4.10219979E-01  4.28210689E-01  4.34479151E-01  4.41543150E-01  4.51030001E-01
  5.21415472E-01  6.15243151E-01  6.42512342E-01  6.42987203E-01  7.02528727E-01
  7.11972421E-01  7.27500907E-01  7.35767012E-01  7.76283292E-01  7.94140701E-01
  8.16866355E-01  8.33078511E-01  8.92080553E-01  9.41914915E-01  9.68661985E-01
  9.78601598E-01  9.92854893E-01  1.01234995E+00  1.05649544E+00  1.09301268E+00
  1.09998533E+00  1.13255809E+00  1.17578617E+00  1.26411210E+00  1.29951422E+00
  1.34085601E+00  1.35856278E+00  1.39569907E+00  1.42476847E+00  1.46525800E+00
  1.48710414E+00  1.62269756E+00  1.75002253E+00  1.76977347E+00  1.77592549E+00
  1.82177832E+00  1.90786793E+00  1.94980504E+00  1.95440992E+00  1.97470838E+00
  2.04116595E+00  2.04690047E+00  2.06955154E+00  2.10252813E+00  2.19435956E+00
  2.20331726E+00  2.27630594E+00  2.31359785E+00  2.32914393E+00  2.33904842E+00
  2.50124656E+00  2.60496621E+00  2.63810548E+00  2.66267194E+00  2.83003827E+00
  2.92925831E+00  2.96188105E+00  3.01956803E+00  3.05180620E+00  3.05627485E+00
  3.08359798E+00  3.08387407E+00  3.08649496E+00  3.09841976E+00  3.17194020E+00
  3.37739699E+00  3.44280700E+00  3.46102279E+00  3.55581596E+00  3.58044711E+00
  3.63910386E+00  3.75033019E+00  3.87751980E+00  3.89574418E+00  3.96362565E+00
  4.39210139E+00  4.40874469E+00  4.47273512E+00  4.49475691E+00  4.80517834E+00
  5.52271541E+00  5.98111267E+00  6.35535660E+00  2.48296715E+01  2.49974718E+01
  2.53294385E+01  2.53935490E+01  5.15754084E+01
Alpha MO coefficients                      R   N=       19044
  2.83288086E-06 -5.22283203E-06  7.23928997E-07 -2.15017869E-06 -7.37068033E-16
  5.50439138E-05 -2.78505941E-06  2.92469237E-05  1.61035954E-15 -1.02795868E-04
  1.21691965E-04 -1.51825235E-04 -5.10211696E-15  8.41327296E-05 -1.02932288E-04
  6.65973423E-05  1.26374124E-14  1.04319134E-06  1.90682426E-16 -4.38923550E-16
 -6.99356017E-06  2.61646552E-05  2.83288086E-06 -5.22283202E-06 -7.23928997E-07
 -2.15017868E-06  4.66241780E-16  5.50439137E-05  2.78505941E-06  2.92469237E-05
 -9.92032890E-16 -1.02795867E-04 -1.21691965E-04 -1.51825235E-04  3.33562039E-15
  8.41327468E-05  1.02932292E-04  6.65973459E-05 -1.15529808E-14  1.04319132E-06
  2.84470120E-16  1.08650824E-16 -6.99356017E-06 -2.61646552E-05 -1.57763437E-06
 -3.65220679E-05  1.81697242E-05  2.37501535E-05 -2.14561102E-17  1.40353212E-04
  2.57430792E-04  1.61216138E-04 -3.26892217E-16  1.34139328E-04  1.40673151E-04
 -3.56746898E-05 -8.20714582E-16 -4.41098203E-04 -1.53316939E-04 -1.24452058E-04
  5.81570694E-15 -3.53101732E-05 -6.27815766E-17  1.93893990E-16  6.72837148E-05
  1.30037863E-04  5.51484526E-01  4.71658555E-01  8.00291505E-16 -1.68268548E-03
 -2.18871547E-16  5.62203745E-03 -2.99738980E-15  6.78770440E-04  1.09096112E-16
 -1.22269741E-03  1.11000619E-14 -1.38612119E-04 -6.96821596E-16  1.15637810E-03
  1.33330996E-14  4.55734790E-05  1.70837648E-16  5.29600191E-05  5.58697962E-17
  6.02924438E-17 -9.68759378E-05 -1.23323387E-15 -1.57763436E-06 -3.65220679E-05
 -1.81697242E-05  2.37501535E-05  2.25038872E-16  1.40353212E-04 -2.57430792E-04
  1.61216138E-04 -1.18069768E-15  1.34139328E-04 -1.40673151E-04 -3.56746903E-05
  3.03450998E-15 -4.41098194E-04  1.53316936E-04 -1.24452060E-04 -7.87913960E-15
 -3.53101732E-05 -1.06813996E-16 -2.23275669E-16  6.72837147E-05 -1.30037863E-04
  1.36176320E-05 -3.78143063E-05 -7.02220755E-05  2.97596388E-05 -4.37361746E-06
  5.03077709E-06  6.78480662E-17  1.36176320E-05 -3.78143062E-05 -7.02220750E-05
  2.97596404E-05  4.37361747E-06  5.03077710E-06 -8.13730933E-17  2.11947943E-07
  7.99045607E-05 -1.76751727E-05  1.03972464E-04  3.20671716E-05 -1.69727852E-05
 -1.28695094E-16  2.11947939E-07  7.99045608E-05 -1.76751722E-05  1.03972465E-04
 -3.20671716E-05 -1.69727852E-05 -1.06993700E-16 -5.16910386E-03 -4.26299303E-03
 -5.26442488E-05 -1.88174561E-04 -7.29920290E-16 -1.44937131E-04  1.58384150E-05
  2.84461721E-04  8.60169289E-16  1.07737022E-03 -4.50435744E-04  3.25589311E-04
 -1.56932869E-15  8.33287023E-04 -2.02914749E-04 -3.36835718E-04 -2.37580859E-15
 -1.07081387E-04 -4.22879777E-17 -2.88799688E-16 -7.85536157E-05 -6.62615363E-06
  5.16910384E-03  4.26299301E-03 -5.26442486E-05  1.88174560E-04 -3.28742798E-16
  1.44937131E-04  1.58384149E-05 -2.84461720E-04  3.15404048E-16 -1.07737022E-03
 -4.50435744E-04 -3.25589311E-04  3.42126607E-16 -8.33287029E-04 -2.02914748E-04
  3.36835717E-04  2.67735094E-15  1.07081386E-04  4.19029946E-16  6.23100446E-16
  7.85536156E-05 -6.62615369E-06  3.98358302E-01  3.29875915E-01  6.24233437E-04
  7.69432024E-04 -2.10133500E-16  2.91965245E-03 -3.36679137E-04 -8.37540510E-04
  2.89194572E-16  3.85899304E-04  6.34297549E-04  1.39924779E-04 -2.79859275E-16
  1.37244270E-03  1.35481573E-03 -5.71793854E-04 -1.65536130E-15 -2.72622531E-04
  4.66395189E-17  3.22790216E-16 -1.94231065E-04 -4.34088198E-04  2.46211345E-13
  4.57452031E-13 -1.26148478E-04  2.22442889E-13  1.49620863E-16 -1.17088481E-12
 -8.21398113E-04  1.02623643E-12 -3.45772417E-16 -9.11591252E-13  1.86456479E-04
  2.41814898E-13 -7.20028663E-16 -1.46518231E-12  1.91531206E-04  1.02002912E-12
 -3.78845512E-17  2.60049413E-13  4.70155921E-16  2.50133841E-16 -1.90421117E-13
  3.22776471E-04 -3.98358304E-01 -3.29875917E-01  6.24233439E-04 -7.69432027E-04
 -9.00683122E-16 -2.91965246E-03 -3.36679138E-04  8.37540513E-04  9.40207205E-16
 -3.85899301E-04  6.34297548E-04 -1.39924780E-04  4.34448801E-16 -1.37244270E-03
  1.35481573E-03  5.71793852E-04  1.54201690E-15  2.72622532E-04 -6.87017534E-16
 -4.87009032E-16  1.94231065E-04 -4.34088199E-04 -1.29516292E-05  1.24111176E-04
  2.80696861E-05 -5.60567819E-05 -2.06927390E-05  5.32583728E-06 -6.01492203E-17
  1.29516292E-05 -1.24111176E-04 -2.80696859E-05  5.60567825E-05 -2.06927390E-05
 -5.32583731E-06 -2.99166900E-16  2.38157947E-04 -2.03937717E-04  7.08980701E-04
  7.16248257E-04 -8.17656688E-05 -1.21383181E-05 -4.95070173E-17 -2.38157947E-04
  2.03937717E-04 -7.08980702E-04 -7.16248257E-04 -8.17656689E-05  1.21383181E-05
 -2.82888082E-16  5.13765892E-03  4.23078972E-03  4.93672556E-05  1.65680729E-04
 -4.11218122E-17  1.57521259E-04 -2.47579871E-05 -1.40923414E-04  5.47483417E-17
 -8.47606630E-05  1.23564652E-05  7.15246558E-05  8.80203854E-16  1.58311447E-03
  2.36361348E-04  2.72663826E-04 -1.25421254E-15  9.81660248E-05  6.77956708E-17
 -3.26298618E-16  3.59012035E-05 -1.81200743E-05  5.13765894E-03  4.23078973E-03
 -4.93672558E-05  1.65680730E-04 -4.18515539E-16  1.57521259E-04  2.47579872E-05
 -1.40923415E-04  3.90771656E-16 -8.47606680E-05 -1.23564679E-05  7.15246534E-05
 -1.10023165E-15  1.58311441E-03 -2.36361358E-04  2.72663815E-04 -9.86171642E-17
  9.81660252E-05  1.90885420E-16 -8.99758849E-18  3.59012037E-05  1.81200743E-05
  3.98363394E-01  3.29884586E-01  6.10909995E-04  7.48168268E-04  3.68579468E-16
  2.94232316E-03 -3.31926261E-04 -7.59470508E-04 -9.86449030E-16 -8.71958581E-04
 -1.34994017E-04  1.54385286E-04  1.18961945E-15 -1.37008547E-03 -3.21476899E-05
  4.08088003E-04  1.09515020E-16 -2.40328952E-04 -2.10106751E-16 -3.70852254E-16
 -1.84808034E-04 -3.60886892E-04 -1.28205329E-04 -2.38177780E-04 -2.41871986E-13
 -1.15836516E-04 -5.10245911E-17  6.09604438E-04 -1.57106635E-12 -5.35194478E-04
 -2.37613942E-16  4.75373506E-04  3.41509455E-13 -1.22633091E-04  4.31853140E-16
  7.18914235E-04  5.93946979E-13 -5.12172638E-04 -1.41646003E-15 -1.35392957E-04
  1.90261116E-16 -1.16670001E-16  9.90772308E-05  6.20500837E-13  3.98363392E-01
  3.29884585E-01 -6.10909992E-04  7.48168265E-04  4.39634057E-16  2.94232315E-03
  3.31926260E-04 -7.59470505E-04 -7.08435332E-16 -8.71958583E-04  1.34994021E-04
  1.54385286E-04 -2.70307539E-16 -1.37008552E-03  3.21477039E-05  4.08088012E-04
  8.44128715E-16 -2.40328951E-04 -2.41868510E-16  4.48512951E-16 -1.84808033E-04
  3.60886890E-04 -5.64198199E-06  2.55055519E-05 -2.96808505E-05 -1.36541719E-04
  1.06337246E-05  9.07689311E-06 -3.99503597E-16 -5.64198193E-06  2.55055512E-05
 -2.96808518E-05 -1.36541723E-04 -1.06337248E-05  9.07689304E-06  1.47051399E-16
  2.50120261E-04 -1.45179164E-04  2.37561509E-04 -6.97022457E-05 -4.13601046E-05
 -2.05354393E-06 -4.32151813E-16  2.50120260E-04 -1.45179164E-04  2.37561506E-04
 -6.97022515E-05  4.13601043E-05 -2.05354388E-06  2.42686715E-16  3.98232365E-01
  3.29773659E-01 -1.94122113E-04 -8.11895502E-05  3.00438494E-16  3.40053090E-03
 -1.13444835E-04  2.63534300E-04 -1.09601515E-15 -5.57087603E-04 -3.16783753E-05
  1.89541521E-05  1.84603360E-15  3.36855448E-03 -3.91765335E-04  1.25678020E-03
 -4.36800591E-15 -2.72279417E-04 -3.89501803E-16 -3.19668468E-16 -6.62395196E-05
  2.10352954E-05  3.98232365E-01  3.29773659E-01  1.94122113E-04 -8.11895503E-05
  6.58695658E-16  3.40053090E-03  1.13444835E-04  2.63534300E-04 -5.74200785E-16
 -5.57087603E-04  3.16783742E-05  1.89541506E-05 -1.84552308E-16  3.36855438E-03
  3.91765320E-04  1.25678018E-03  2.85221234E-15 -2.72279417E-04 -5.82759971E-16
  3.77666634E-16 -6.62395196E-05 -2.10352954E-05 -5.28924521E-03 -4.42857734E-03
  3.88996495E-05 -1.87730173E-04  1.14643838E-16  2.49489849E-04  2.44882402E-05
  1.10782825E-05 -2.37903034E-17 -6.14599445E-04 -2.38811366E-04 -1.09922847E-04
 -6.60887731E-16 -3.43490610E-03 -9.06055588E-04  1.06868270E-03 -1.19967719E-15
  9.59514375E-05 -1.61824123E-16  2.84788912E-16 -4.43994928E-05  2.34891062E-05
  6.28500057E-06  5.18416658E-06 -1.46915816E-15  2.70452260E-05  6.05829160E-16
  1.91994281E-05  1.26350343E-14 -2.62072639E-05 -1.16652463E-15  2.46260381E-05
 -5.16681050E-14  6.01563675E-06  1.63806633E-15  1.35761801E-03  4.51143841E-13
 -4.96229512E-04 -1.08246954E-15 -3.93568363E-06 -7.82829703E-17 -1.56114878E-16
 -2.02673576E-05  3.43742475E-15 -5.28924521E-03 -4.42857734E-03 -3.88996495E-05
 -1.87730173E-04 -6.86673229E-16  2.49489849E-04 -2.44882403E-05  1.10782826E-05
  1.01466248E-15 -6.14599446E-04  2.38811367E-04 -1.09922847E-04 -1.27129774E-15
 -3.43490615E-03  9.06055602E-04  1.06868271E-03  3.12473973E-15  9.59514375E-05
  2.18448772E-16 -4.31897194E-16 -4.43994928E-05 -2.34891062E-05  2.78122234E-04
 -8.41457652E-05  3.77633527E-04  4.41252113E-04 -6.70018816E-07  2.47146162E-06