 Entering Gaussian System, Link 0=g16
 Initial command:
 /sw/cluster/pub/apps//g16/l1.exe "/data/mmaximo/31362/Gau-50036.inp" -scrdir="/data/mmaximo/31362/"
 Entering Link 1 = /sw/cluster/pub/apps//g16/l1.exe PID=     50039.
  
 Copyright (c) 1988,1990,1992,1993,1995,1998,2003,2009,2016,
            Gaussian, Inc.  All Rights Reserved.
  
 This is part of the Gaussian(R) 16 program.  It is based on
 the Gaussian(R) 09 system (copyright 2009, Gaussian, Inc.),
 the Gaussian(R) 03 system (copyright 2003, Gaussian, Inc.),
 the Gaussian(R) 98 system (copyright 1998, Gaussian, Inc.),
 the Gaussian(R) 94 system (copyright 1995, Gaussian, Inc.),
 the Gaussian 92(TM) system (copyright 1992, Gaussian, Inc.),
 the Gaussian 90(TM) system (copyright 1990, Gaussian, Inc.),
 the Gaussian 88(TM) system (copyright 1988, Gaussian, Inc.),
 the Gaussian 86(TM) system (copyright 1986, Carnegie Mellon
 University), and the Gaussian 82(TM) system (copyright 1983,
 Carnegie Mellon University). Gaussian is a federally registered
 trademark of Gaussian, Inc.
  
 This software contains proprietary and confidential information,
 including trade secrets, belonging to Gaussian, Inc.
  
 This software is provided under written license and may be
 used, copied, transmitted, or stored only in accord with that
 written license.
  
 The following legend is applicable only to US Government
 contracts under FAR:
  
                    RESTRICTED RIGHTS LEGEND
  
 Use, reproduction and disclosure by the US Government is
 subject to restrictions as set forth in subparagraphs (a)
 and (c) of the Commercial Computer Software - Restricted
 Rights clause in FAR 52.227-19.
  
 Gaussian, Inc.
 340 Quinnipiac St., Bldg. 40, Wallingford CT 06492
  
  
 ---------------------------------------------------------------
 Warning -- This program may not be used in any manner that
 competes with the business of Gaussian, Inc. or will provide
 assistance to any competitor of Gaussian, Inc.  The licensee
 of this program is prohibited from giving any competitor of
 Gaussian, Inc. access to this program.  By using this program,
 the user acknowledges that Gaussian, Inc. is engaged in the
 business of creating and licensing software in the field of
 computational chemistry and represents and warrants to the
 licensee that it is not a competitor of Gaussian, Inc. and that
 it will not use this program in any manner prohibited above.
 ---------------------------------------------------------------
  

 Cite this work as:
 Gaussian 16, Revision A.03,
 M. J. Frisch, G. W. Trucks, H. B. Schlegel, G. E. Scuseria, 
 M. A. Robb, J. R. Cheeseman, G. Scalmani, V. Barone, 
 G. A. Petersson, H. Nakatsuji, X. Li, M. Caricato, A. V. Marenich, 
 J. Bloino, B. G. Janesko, R. Gomperts, B. Mennucci, H. P. Hratchian, 
 J. V. Ortiz, A. F. Izmaylov, J. L. Sonnenberg, D. Williams-Young, 
 F. Ding, F. Lipparini, F. Egidi, J. Goings, B. Peng, A. Petrone, 
 T. Henderson, D. Ranasinghe, V. G. Zakrzewski, J. Gao, N. Rega, 
 G. Zheng, W. Liang, M. Hada, M. Ehara, K. Toyota, R. Fukuda, 
 J. Hasegawa, M. Ishida, T. Nakajima, Y. Honda, O. Kitao, H. Nakai, 
 T. Vreven, K. Throssell, J. A. Montgomery, Jr., J. E. Peralta, 
 F. Ogliaro, M. J. Bearpark, J. J. Heyd, E. N. Brothers, K. N. Kudin, 
 V. N. Staroverov, T. A. Keith, R. Kobayashi, J. Normand, 
 K. Raghavachari, A. P. Rendell, J. C. Burant, S. S. Iyengar, 
 J. Tomasi, M. Cossi, J. M. Millam, M. Klene, C. Adamo, R. Cammi, 
 J. W. Ochterski, R. L. Martin, K. Morokuma, O. Farkas, 
 J. B. Foresman, and D. J. Fox, Gaussian, Inc., Wallingford CT, 2016.
 
 ******************************************
 Gaussian 16:  ES64L-G16RevA.03 25-Dec-2016
                13-Feb-2025 
 ******************************************
 %chk=O.chk
 ------------------------------------
 #P MP2/6-311++G** nosymm Density=MP2
 ------------------------------------
 1/30=1,38=1,172=1/1;
 2/12=2,15=1,17=6,18=5,40=1/2;
 3/5=4,6=6,7=1111,11=9,25=1,30=1,71=1/1,2,3;
 4//1;
 5/5=2,38=5/2;
 8/6=4,10=2/1;
 9/15=1,16=-3/6;
 10/5=1,13=10,31=1/2;
 6/7=2,8=2,9=2,10=2,22=2/1;
 99/5=1,9=1/99;
 Leave Link    1 at Thu Feb 13 09:44:47 2025, MaxMem=           0 cpu:               0.0 elap:               0.0
 (Enter /sw/cluster/pub/apps//g16/l101.exe)
 -
 O
 -
 Symbolic Z-matrix:
 Charge =  0 Multiplicity = 1
 C                     0.71768  -0.95776   0. 
 C                    -0.71768  -0.95776   0. 
 C                    -1.09514   0.34692   0. 
 O                     0.        1.15853   0. 
 C                     1.09514   0.34692   0. 
 H                     1.3734   -1.8137    0. 
 H                    -1.3734   -1.8137    0. 
 H                    -2.04976   0.84459   0. 
 H                     2.04976   0.84459   0. 
 
 ITRead=  0  0  0  0  0  0  0  0  0
 MicOpt= -1 -1 -1 -1 -1 -1 -1 -1 -1
 NAtoms=      9 NQM=        9 NQMF=       0 NMMI=      0 NMMIF=      0
                NMic=       0 NMicF=      0.
                    Isotopes and Nuclear Properties:
 (Nuclear quadrupole moments (NQMom) in fm**2, nuclear magnetic moments (NMagM)
  in nuclear magnetons)

  Atom         1           2           3           4           5           6           7           8           9
 IAtWgt=          12          12          12          16          12           1           1           1           1
 AtmWgt=  12.0000000  12.0000000  12.0000000  15.9949146  12.0000000   1.0078250   1.0078250   1.0078250   1.0078250
 NucSpn=           0           0           0           0           0           1           1           1           1
 AtZEff=  -0.0000000  -0.0000000  -0.0000000  -0.0000000  -0.0000000  -0.0000000  -0.0000000  -0.0000000  -0.0000000
 NQMom=    0.0000000   0.0000000   0.0000000   0.0000000   0.0000000   0.0000000   0.0000000   0.0000000   0.0000000
 NMagM=    0.0000000   0.0000000   0.0000000   0.0000000   0.0000000   2.7928460   2.7928460   2.7928460   2.7928460
 AtZNuc=   6.0000000   6.0000000   6.0000000   8.0000000   6.0000000   1.0000000   1.0000000   1.0000000   1.0000000
 Leave Link  101 at Thu Feb 13 09:44:48 2025, MaxMem=   104857600 cpu:               0.0 elap:               0.0
 (Enter /sw/cluster/pub/apps//g16/l202.exe)
                          Input orientation:                          
 ---------------------------------------------------------------------
 Center     Atomic      Atomic             Coordinates (Angstroms)
 Number     Number       Type             X           Y           Z
 ---------------------------------------------------------------------
      1          6           0        0.717679   -0.957756    0.000000
      2          6           0       -0.717679   -0.957756    0.000000
      3          6           0       -1.095144    0.346923    0.000000
      4          8           0        0.000000    1.158526    0.000000
      5          6           0        1.095144    0.346923    0.000000
      6          1           0        1.373404   -1.813697    0.000000
      7          1           0       -1.373404   -1.813697    0.000000
      8          1           0       -2.049761    0.844593    0.000000
      9          1           0        2.049761    0.844593    0.000000
 ---------------------------------------------------------------------
                    Distance matrix (angstroms):
                    1          2          3          4          5
     1  C    0.000000
     2  C    1.435358   0.000000
     3  C    2.233498   1.358185   0.000000
     4  O    2.234662   2.234662   1.363099   0.000000
     5  C    1.358185   2.233498   2.190288   1.363099   0.000000
     6  H    1.078244   2.259483   3.280550   3.274195   2.178465
     7  H    2.259483   1.078244   2.178465   3.274195   3.280550
     8  H    3.302603   2.241184   1.076554   2.073662   3.184039
     9  H    2.241184   3.302603   3.184039   2.073662   1.076554
                    6          7          8          9
     6  H    0.000000
     7  H    2.746808   0.000000
     8  H    4.334117   2.742985   0.000000
     9  H    2.742985   4.334117   4.099522   0.000000
 Symmetry turned off by external request.
 Stoichiometry    C4H4O
 Framework group  C2V[C2(O),SGV(C4H4)]
 Deg. of freedom     8
 Full point group                 C2V     NOp   4
 Rotational constants (GHZ):           9.4611058           9.2924406           4.6880074
 Leave Link  202 at Thu Feb 13 09:44:48 2025, MaxMem=   104857600 cpu:               0.0 elap:               0.0
 (Enter /sw/cluster/pub/apps//g16/l301.exe)
 Standard basis: 6-311++G(d,p) (5D, 7F)
 Ernie: Thresh=  0.10000D-02 Tol=  0.10000D-05 Strict=F.
   138 basis functions,   216 primitive gaussians,   143 cartesian basis functions
    18 alpha electrons       18 beta electrons
       nuclear repulsion energy       160.9034995291 Hartrees.
 IExCor=    0 DFT=F Ex=HF Corr=None ExCW=0 ScaHFX=  1.000000
 ScaDFX=  1.000000  1.000000  1.000000  1.000000 ScalE2=  1.000000  1.000000
 IRadAn=      5 IRanWt=     -1 IRanGd=            0 ICorTp=0 IEmpDi=  4
 NAtoms=    9 NActive=    9 NUniq=    9 SFac= 1.00D+00 NAtFMM=   60 NAOKFM=F Big=F
 Integral buffers will be    131072 words long.
 Raffenetti 1 integral format.
 Two-electron integral symmetry is turned off.
 Leave Link  301 at Thu Feb 13 09:44:48 2025, MaxMem=   104857600 cpu:               0.0 elap:               0.0
 (Enter /sw/cluster/pub/apps//g16/l302.exe)
 NPDir=0 NMtPBC=     1 NCelOv=     1 NCel=       1 NClECP=     1 NCelD=      1
         NCelK=      1 NCelE2=     1 NClLst=     1 CellRange=     0.0.
 One-electron integrals computed using PRISM.
 NBasis=   138 RedAO= T EigKep=  5.77D-06  NBF=   138
 NBsUse=   138 1.00D-06 EigRej= -1.00D+00 NBFU=   138
 Leave Link  302 at Thu Feb 13 09:44:48 2025, MaxMem=   104857600 cpu:               0.0 elap:               0.1
 (Enter /sw/cluster/pub/apps//g16/l303.exe)
 DipDrv:  MaxL=1.
 Leave Link  303 at Thu Feb 13 09:44:48 2025, MaxMem=   104857600 cpu:               0.0 elap:               0.0
 (Enter /sw/cluster/pub/apps//g16/l401.exe)
 ExpMin= 3.60D-02 ExpMax= 8.59D+03 ExpMxC= 1.30D+03 IAcc=3 IRadAn=         5 AccDes= 0.00D+00
 Harris functional with IExCor=  205 and IRadAn=       5 diagonalized for initial guess.
 HarFok:  IExCor=  205 AccDes= 0.00D+00 IRadAn=         5 IDoV= 1 UseB2=F ITyADJ=14
 ICtDFT=  3500011 ScaDFX=  1.000000  1.000000  1.000000  1.000000
 FoFCou: FMM=F IPFlag=           0 FMFlag=      100000 FMFlg1=           0
         NFxFlg=           0 DoJE=T BraDBF=F KetDBF=T FulRan=T
         wScrn=  0.000000 ICntrl=       500 IOpCl=  0 I1Cent=   200000004 NGrid=           0
         NMat0=    1 NMatS0=      1 NMatT0=    0 NMatD0=    1 NMtDS0=    0 NMtDT0=    0
 Symmetry not used in FoFCou.
 Harris En= -228.950712234309    
 JPrj=0 DoOrth=F DoCkMO=F.
 Leave Link  401 at Thu Feb 13 09:44:48 2025, MaxMem=   104857600 cpu:               0.4 elap:               0.4
 (Enter /sw/cluster/pub/apps//g16/l502.exe)
 Keep R1 ints in memory in canonical form, NReq=47491841.
 FoFCou: FMM=F IPFlag=           0 FMFlag=           0 FMFlg1=           0
         NFxFlg=           0 DoJE=F BraDBF=F KetDBF=F FulRan=T
         wScrn=  0.000000 ICntrl=       600 IOpCl=  0 I1Cent=           0 NGrid=           0
         NMat0=    1 NMatS0=   9591 NMatT0=    0 NMatD0=    1 NMtDS0=    0 NMtDT0=    0
 Symmetry not used in FoFCou.
 Two-electron integral symmetry not used.
 Closed shell SCF:
 Using DIIS extrapolation, IDIIS=  1040.
 NGot=   104857600 LenX=    58816260 LenY=    58795370
 Requested convergence on RMS density matrix=1.00D-08 within 128 cycles.
 Requested convergence on MAX density matrix=1.00D-06.
 Requested convergence on             energy=1.00D-06.
 No special actions if energy rises.

 Cycle   1  Pass 1  IDiag  1:
 E= -228.465027002835    
 DIIS: error= 5.98D-02 at cycle   1 NSaved=   1.
 NSaved= 1 IEnMin= 1 EnMin= -228.465027002835     IErMin= 1 ErrMin= 5.98D-02
 ErrMax= 5.98D-02  0.00D+00 EMaxC= 1.00D-01 BMatC= 4.35D-01 BMatP= 4.35D-01
 IDIUse=3 WtCom= 4.02D-01 WtEn= 5.98D-01
 Coeff-Com:  0.100D+01
 Coeff-En:   0.100D+01
 Coeff:      0.100D+01
 Gap=     0.456 Goal=   None    Shift=    0.000
 GapD=    0.456 DampG=2.000 DampE=0.500 DampFc=1.0000 IDamp=-1.
 RMSDP=5.44D-03 MaxDP=1.75D-01              OVMax= 1.64D-01

 Cycle   2  Pass 1  IDiag  1:
 E= -228.643674965911     Delta-E=       -0.178647963076 Rises=F Damp=F
 DIIS: error= 1.92D-02 at cycle   2 NSaved=   2.
 NSaved= 2 IEnMin= 2 EnMin= -228.643674965911     IErMin= 2 ErrMin= 1.92D-02
 ErrMax= 1.92D-02  0.00D+00 EMaxC= 1.00D-01 BMatC= 4.21D-02 BMatP= 4.35D-01
 IDIUse=3 WtCom= 8.08D-01 WtEn= 1.92D-01
 Coeff-Com:  0.147D+00 0.853D+00
 Coeff-En:   0.000D+00 0.100D+01
 Coeff:      0.119D+00 0.881D+00
 Gap=     0.390 Goal=   None    Shift=    0.000
 RMSDP=2.80D-03 MaxDP=4.23D-02 DE=-1.79D-01 OVMax= 7.26D-02

 Cycle   3  Pass 1  IDiag  1:
 E= -228.675165722890     Delta-E=       -0.031490756980 Rises=F Damp=F
 DIIS: error= 1.18D-02 at cycle   3 NSaved=   3.
 NSaved= 3 IEnMin= 3 EnMin= -228.675165722890     IErMin= 3 ErrMin= 1.18D-02
 ErrMax= 1.18D-02  0.00D+00 EMaxC= 1.00D-01 BMatC= 8.31D-03 BMatP= 4.21D-02
 IDIUse=3 WtCom= 8.82D-01 WtEn= 1.18D-01
 Coeff-Com: -0.136D-01 0.288D+00 0.726D+00
 Coeff-En:   0.000D+00 0.000D+00 0.100D+01
 Coeff:     -0.120D-01 0.254D+00 0.758D+00
 Gap=     0.368 Goal=   None    Shift=    0.000
 RMSDP=8.34D-04 MaxDP=1.80D-02 DE=-3.15D-02 OVMax= 3.67D-02

 Cycle   4  Pass 1  IDiag  1:
 E= -228.682507272040     Delta-E=       -0.007341549150 Rises=F Damp=F
 DIIS: error= 2.49D-03 at cycle   4 NSaved=   4.
 NSaved= 4 IEnMin= 4 EnMin= -228.682507272040     IErMin= 4 ErrMin= 2.49D-03
 ErrMax= 2.49D-03  0.00D+00 EMaxC= 1.00D-01 BMatC= 5.51D-04 BMatP= 8.31D-03
 IDIUse=3 WtCom= 9.75D-01 WtEn= 2.49D-02
 Coeff-Com: -0.963D-02 0.608D-01 0.276D+00 0.673D+00
 Coeff-En:   0.000D+00 0.000D+00 0.000D+00 0.100D+01
 Coeff:     -0.939D-02 0.593D-01 0.269D+00 0.681D+00
 Gap=     0.364 Goal=   None    Shift=    0.000
 RMSDP=2.22D-04 MaxDP=4.23D-03 DE=-7.34D-03 OVMax= 6.14D-03

 Cycle   5  Pass 1  IDiag  1:
 E= -228.682951545839     Delta-E=       -0.000444273799 Rises=F Damp=F
 DIIS: error= 1.14D-03 at cycle   5 NSaved=   5.
 NSaved= 5 IEnMin= 5 EnMin= -228.682951545839     IErMin= 5 ErrMin= 1.14D-03
 ErrMax= 1.14D-03  0.00D+00 EMaxC= 1.00D-01 BMatC= 1.68D-05 BMatP= 5.51D-04
 IDIUse=3 WtCom= 9.89D-01 WtEn= 1.14D-02
 Coeff-Com:  0.906D-03-0.229D-01-0.513D-01 0.150D-02 0.107D+01
 Coeff-En:   0.000D+00 0.000D+00 0.000D+00 0.000D+00 0.100D+01
 Coeff:      0.896D-03-0.227D-01-0.507D-01 0.148D-02 0.107D+01
 Gap=     0.364 Goal=   None    Shift=    0.000
 RMSDP=1.10D-04 MaxDP=1.61D-03 DE=-4.44D-04 OVMax= 4.17D-03

 Cycle   6  Pass 1  IDiag  1:
 E= -228.683001231663     Delta-E=       -0.000049685824 Rises=F Damp=F
 DIIS: error= 3.44D-04 at cycle   6 NSaved=   6.
 NSaved= 6 IEnMin= 6 EnMin= -228.683001231663     IErMin= 6 ErrMin= 3.44D-04
 ErrMax= 3.44D-04  0.00D+00 EMaxC= 1.00D-01 BMatC= 3.57D-06 BMatP= 1.68D-05
 IDIUse=3 WtCom= 9.97D-01 WtEn= 3.44D-03
 Coeff-Com:  0.737D-03-0.453D-02-0.191D-01-0.902D-01-0.896D-01 0.120D+01
 Coeff-En:   0.000D+00 0.000D+00 0.000D+00 0.000D+00 0.000D+00 0.100D+01
 Coeff:      0.734D-03-0.452D-02-0.190D-01-0.899D-01-0.893D-01 0.120D+01
 Gap=     0.365 Goal=   None    Shift=    0.000
 RMSDP=4.74D-05 MaxDP=7.26D-04 DE=-4.97D-05 OVMax= 2.29D-03

 Cycle   7  Pass 1  IDiag  1:
 E= -228.683012394930     Delta-E=       -0.000011163267 Rises=F Damp=F
 DIIS: error= 1.32D-04 at cycle   7 NSaved=   7.
 NSaved= 7 IEnMin= 7 EnMin= -228.683012394930     IErMin= 7 ErrMin= 1.32D-04
 ErrMax= 1.32D-04  0.00D+00 EMaxC= 1.00D-01 BMatC= 4.94D-07 BMatP= 3.57D-06
 IDIUse=3 WtCom= 9.99D-01 WtEn= 1.32D-03
 Coeff-Com: -0.164D-05 0.265D-02 0.609D-02-0.138D-01-0.138D+00 0.116D+00
 Coeff-Com:  0.103D+01
 Coeff-En:   0.000D+00 0.000D+00 0.000D+00 0.000D+00 0.000D+00 0.000D+00
 Coeff-En:   0.100D+01
 Coeff:     -0.164D-05 0.265D-02 0.608D-02-0.138D-01-0.138D+00 0.116D+00
 Coeff:      0.103D+01
 Gap=     0.365 Goal=   None    Shift=    0.000
 RMSDP=1.63D-05 MaxDP=4.52D-04 DE=-1.12D-05 OVMax= 7.45D-04

 Cycle   8  Pass 1  IDiag  1:
 E= -228.683013994560     Delta-E=       -0.000001599630 Rises=F Damp=F
 DIIS: error= 5.12D-05 at cycle   8 NSaved=   8.
 NSaved= 8 IEnMin= 8 EnMin= -228.683013994560     IErMin= 8 ErrMin= 5.12D-05
 ErrMax= 5.12D-05  0.00D+00 EMaxC= 1.00D-01 BMatC= 7.22D-08 BMatP= 4.94D-07
 IDIUse=1 WtCom= 1.00D+00 WtEn= 0.00D+00
 Coeff-Com: -0.174D-03 0.141D-02 0.502D-02 0.174D-01 0.700D-02-0.259D+00
 Coeff-Com:  0.750D-01 0.115D+01
 Coeff:     -0.174D-03 0.141D-02 0.502D-02 0.174D-01 0.700D-02-0.259D+00
 Coeff:      0.750D-01 0.115D+01
 Gap=     0.365 Goal=   None    Shift=    0.000
 RMSDP=8.62D-06 MaxDP=2.65D-04 DE=-1.60D-06 OVMax= 4.29D-04

 Cycle   9  Pass 1  IDiag  1:
 E= -228.683014233656     Delta-E=       -0.000000239095 Rises=F Damp=F
 DIIS: error= 3.37D-06 at cycle   9 NSaved=   9.
 NSaved= 9 IEnMin= 9 EnMin= -228.683014233656     IErMin= 9 ErrMin= 3.37D-06
 ErrMax= 3.37D-06  0.00D+00 EMaxC= 1.00D-01 BMatC= 1.13D-09 BMatP= 7.22D-08
 IDIUse=1 WtCom= 1.00D+00 WtEn= 0.00D+00
 Coeff-Com:  0.271D-04-0.306D-03-0.112D-02-0.289D-02 0.436D-02 0.440D-01
 Coeff-Com: -0.361D-01-0.263D+00 0.126D+01
 Coeff:      0.271D-04-0.306D-03-0.112D-02-0.289D-02 0.436D-02 0.440D-01
 Coeff:     -0.361D-01-0.263D+00 0.126D+01
 Gap=     0.365 Goal=   None    Shift=    0.000
 RMSDP=1.10D-06 MaxDP=3.07D-05 DE=-2.39D-07 OVMax= 2.70D-05

 Cycle  10  Pass 1  IDiag  1:
 E= -228.683014236912     Delta-E=       -0.000000003257 Rises=F Damp=F
 DIIS: error= 8.61D-07 at cycle  10 NSaved=  10.
 NSaved=10 IEnMin=10 EnMin= -228.683014236912     IErMin=10 ErrMin= 8.61D-07
 ErrMax= 8.61D-07  0.00D+00 EMaxC= 1.00D-01 BMatC= 5.29D-11 BMatP= 1.13D-09
 IDIUse=1 WtCom= 1.00D+00 WtEn= 0.00D+00
 Coeff-Com: -0.266D-05 0.451D-04 0.169D-03 0.440D-03-0.169D-02-0.571D-02
 Coeff-Com:  0.129D-01 0.344D-01-0.345D+00 0.130D+01
 Coeff:     -0.266D-05 0.451D-04 0.169D-03 0.440D-03-0.169D-02-0.571D-02
 Coeff:      0.129D-01 0.344D-01-0.345D+00 0.130D+01
 Gap=     0.365 Goal=   None    Shift=    0.000
 RMSDP=2.78D-07 MaxDP=1.03D-05 DE=-3.26D-09 OVMax= 4.61D-06

 Cycle  11  Pass 1  IDiag  1:
 E= -228.683014237051     Delta-E=       -0.000000000139 Rises=F Damp=F
 DIIS: error= 1.95D-07 at cycle  11 NSaved=  11.
 NSaved=11 IEnMin=11 EnMin= -228.683014237051     IErMin=11 ErrMin= 1.95D-07
 ErrMax= 1.95D-07  0.00D+00 EMaxC= 1.00D-01 BMatC= 3.84D-12 BMatP= 5.29D-11
 IDIUse=1 WtCom= 1.00D+00 WtEn= 0.00D+00
 Coeff-Com: -0.706D-06 0.551D-05 0.108D-04 0.653D-04 0.245D-03-0.116D-02
 Coeff-Com: -0.116D-03 0.278D-02 0.282D-01-0.350D+00 0.132D+01
 Coeff:     -0.706D-06 0.551D-05 0.108D-04 0.653D-04 0.245D-03-0.116D-02
 Coeff:     -0.116D-03 0.278D-02 0.282D-01-0.350D+00 0.132D+01
 Gap=     0.365 Goal=   None    Shift=    0.000
 RMSDP=5.56D-08 MaxDP=9.12D-07 DE=-1.39D-10 OVMax= 1.47D-06

 Cycle  12  Pass 1  IDiag  1:
 E= -228.683014237061     Delta-E=       -0.000000000010 Rises=F Damp=F
 DIIS: error= 4.71D-08 at cycle  12 NSaved=  12.
 NSaved=12 IEnMin=12 EnMin= -228.683014237061     IErMin=12 ErrMin= 4.71D-08
 ErrMax= 4.71D-08  0.00D+00 EMaxC= 1.00D-01 BMatC= 1.84D-13 BMatP= 3.84D-12
 IDIUse=1 WtCom= 1.00D+00 WtEn= 0.00D+00
 Coeff-Com:  0.297D-06-0.391D-05-0.142D-04-0.372D-04 0.494D-04 0.611D-03
 Coeff-Com: -0.635D-03-0.341D-02 0.177D-01-0.134D-01-0.273D+00 0.127D+01
 Coeff:      0.297D-06-0.391D-05-0.142D-04-0.372D-04 0.494D-04 0.611D-03
 Coeff:     -0.635D-03-0.341D-02 0.177D-01-0.134D-01-0.273D+00 0.127D+01
 Gap=     0.365 Goal=   None    Shift=    0.000
 RMSDP=1.43D-08 MaxDP=2.09D-07 DE=-1.00D-11 OVMax= 3.32D-07

 Cycle  13  Pass 1  IDiag  1:
 E= -228.683014237062     Delta-E=       -0.000000000000 Rises=F Damp=F
 DIIS: error= 1.05D-08 at cycle  13 NSaved=  13.
 NSaved=13 IEnMin=13 EnMin= -228.683014237062     IErMin=13 ErrMin= 1.05D-08
 ErrMax= 1.05D-08  0.00D+00 EMaxC= 1.00D-01 BMatC= 5.29D-15 BMatP= 1.84D-13
 IDIUse=1 WtCom= 1.00D+00 WtEn= 0.00D+00
 Coeff-Com: -0.600D-07 0.955D-06 0.360D-05 0.927D-05-0.237D-04-0.142D-03
 Coeff-Com:  0.228D-03 0.800D-03-0.547D-02 0.114D-01 0.519D-01-0.402D+00
 Coeff-Com:  0.134D+01
 Coeff:     -0.600D-07 0.955D-06 0.360D-05 0.927D-05-0.237D-04-0.142D-03
 Coeff:      0.228D-03 0.800D-03-0.547D-02 0.114D-01 0.519D-01-0.402D+00
 Coeff:      0.134D+01
 Gap=     0.365 Goal=   None    Shift=    0.000
 RMSDP=3.25D-09 MaxDP=1.36D-07 DE=-4.55D-13 OVMax= 7.24D-08

 SCF Done:  E(RHF) =  -228.683014237     A.U. after   13 cycles
            NFock= 13  Conv=0.33D-08     -V/T= 2.0013
 KE= 2.283907941569D+02 PE=-8.571148258231D+02 EE= 2.391375179001D+02
 Leave Link  502 at Thu Feb 13 09:44:49 2025, MaxMem=   104857600 cpu:               0.9 elap:               0.9
 (Enter /sw/cluster/pub/apps//g16/l801.exe)
 ExpMin= 3.60D-02 ExpMax= 8.59D+03 ExpMxC= 1.30D+03 IAcc=3 IRadAn=         5 AccDes= 0.00D+00
 HarFok:  IExCor=  205 AccDes= 0.00D+00 IRadAn=         5 IDoV=-2 UseB2=F ITyADJ=14
 ICtDFT= 12500011 ScaDFX=  1.000000  1.000000  1.000000  1.000000
 Largest valence mixing into a core orbital is  1.32D-04
 Largest core mixing into a valence orbital is  4.28D-05
 Range of M.O.s used for correlation:     6   138
 NBasis=   138 NAE=    18 NBE=    18 NFC=     5 NFV=     0
 NROrb=    133 NOA=    13 NOB=    13 NVA=   120 NVB=   120

 **** Warning!!: The largest alpha MO coefficient is  0.14128823D+03

 Leave Link  801 at Thu Feb 13 09:44:50 2025, MaxMem=   104857600 cpu:               0.1 elap:               0.6
 (Enter /sw/cluster/pub/apps//g16/l906.exe)
 Frozen-core derivative calculation, NFC=   5 NFV=   0.
 FulOut=F Deriv=T AODrv=F NAtomX=     9
   MMem=          68  MDisk=          13 MDiskD=          13
  W3Min=      355212 MinDsk=      594544 NBas6D=         143
 NBas2D=       10503    NTT=       10296    LW2=     2040000
    MDV=   104629100 MDiskM=        9967 NBas2p=       10498
 Fully direct method using O(ONN) memory.
 IMap=   1   2   3   4   5   6   7   8   9  10  11  12  13  14  15  16  17  18
 JobTyp=1 Pass  1:  I=   6 to  18 NPSUse=  1 ParTrn=F ParDer=F DoDerP=T.
 Spin components of T(2) and E(2):
     alpha-alpha T2 =       0.3377286017D-01 E2=     -0.9908751863D-01
     alpha-beta  T2 =       0.1840816756D+00 E2=     -0.5547659545D+00
     beta-beta   T2 =       0.3377286017D-01 E2=     -0.9908751863D-01
 The integrals were generated   1 times.
 ANorm=    0.1118761546D+01
 E2 =    -0.7529409917D+00 EUMP2 =    -0.22943595522879D+03
 Leave Link  906 at Thu Feb 13 09:44:53 2025, MaxMem=   104857600 cpu:               1.9 elap:               2.1
 (Enter /sw/cluster/pub/apps//g16/l1002.exe)
 Minotr:  Closed shell wavefunction.
          Computing MP2/KS-MP2 derivatives.
          Using Z-Vector for PSCF gradient.
          Skipping F1 and S1 gradient terms here.
          Frozen-core window.
          Direct CPHF calculation.
          Differentiating once with respect to electric field.
                with respect to dipole field.
          Electric field/nuclear overlap derivatives assumed to be zero.
          Requested convergence is 1.0D-10 RMS, and 1.0D-09 maximum.
          NewPWx=F KeepS1=T KeepF1=T KeepIn=T MapXYZ=F SortEE=F KeepMc=T.
 Keep R1 ints in memory in canonical form, NReq=47492931.
 FoFCou: FMM=F IPFlag=           0 FMFlag=           0 FMFlg1=           0
         NFxFlg=           0 DoJE=F BraDBF=F KetDBF=F FulRan=T
         wScrn=  0.000000 ICntrl=       600 IOpCl=  0 I1Cent=           0 NGrid=           0
         NMat0=    1 NMatS0=   9591 NMatT0=    0 NMatD0=    1 NMtDS0=    0 NMtDT0=    0
 Symmetry not used in FoFCou.
 Two-electron integral symmetry not used.
          MDV=     104857600 using IRadAn=       5.
          Solving linear equations separately, MaxMat=       0.
          There are     1 degrees of freedom in the 1st order CPHF.  IDoFFX=0 NUNeed=     1.
 LinEq1:  Iter=  0 NonCon=     1 RMS=5.02D-03 Max=6.82D-02 NDo=     1
 AX will form     1 AO Fock derivatives at one time.
 LinEq1:  Iter=  1 NonCon=     1 RMS=1.40D-03 Max=2.07D-02 NDo=     1
 LinEq1:  Iter=  2 NonCon=     1 RMS=6.58D-04 Max=1.35D-02 NDo=     1
 LinEq1:  Iter=  3 NonCon=     1 RMS=2.56D-04 Max=4.59D-03 NDo=     1
 LinEq1:  Iter=  4 NonCon=     1 RMS=8.92D-05 Max=1.35D-03 NDo=     1
 LinEq1:  Iter=  5 NonCon=     1 RMS=2.16D-05 Max=3.34D-04 NDo=     1
 LinEq1:  Iter=  6 NonCon=     1 RMS=6.04D-06 Max=6.99D-05 NDo=     1
 LinEq1:  Iter=  7 NonCon=     1 RMS=1.81D-06 Max=1.87D-05 NDo=     1
 LinEq1:  Iter=  8 NonCon=     1 RMS=2.75D-07 Max=2.95D-06 NDo=     1
 LinEq1:  Iter=  9 NonCon=     1 RMS=4.54D-08 Max=5.14D-07 NDo=     1
 LinEq1:  Iter= 10 NonCon=     1 RMS=8.78D-09 Max=8.22D-08 NDo=     1
 LinEq1:  Iter= 11 NonCon=     1 RMS=1.39D-09 Max=1.46D-08 NDo=     1
 LinEq1:  Iter= 12 NonCon=     1 RMS=1.80D-10 Max=1.56D-09 NDo=     1
 LinEq1:  Iter= 13 NonCon=     0 RMS=2.47D-11 Max=2.69D-10 NDo=     1
 Linear equations converged to 1.000D-10 1.000D-09 after    13 iterations.
 End of Minotr F.D. properties file   721 does not exist.
 End of Minotr F.D. properties file   722 does not exist.
 End of Minotr F.D. properties file   788 does not exist.
 Leave Link 1002 at Thu Feb 13 09:44:55 2025, MaxMem=   104857600 cpu:               1.2 elap:               1.2
 (Enter /sw/cluster/pub/apps//g16/l601.exe)
 Copying SCF densities to generalized density rwf, IOpCl= 0 IROHF=0.

 **********************************************************************

            Population analysis using the MP2 density.

 **********************************************************************

 Alpha  occ. eigenvalues --  -20.62424 -11.29179 -11.29175 -11.23519 -11.23423
 Alpha  occ. eigenvalues --   -1.46074  -1.08716  -1.00820  -0.80956  -0.78346
 Alpha  occ. eigenvalues --   -0.74163  -0.63312  -0.61242  -0.58028  -0.56672
 Alpha  occ. eigenvalues --   -0.54249  -0.39921  -0.32231
 Alpha virt. eigenvalues --    0.04224   0.04851   0.05494   0.06786   0.10404
 Alpha virt. eigenvalues --    0.11622   0.12934   0.15057   0.15071   0.15163
 Alpha virt. eigenvalues --    0.15622   0.16199   0.18025   0.18843   0.19601
 Alpha virt. eigenvalues --    0.19694   0.19708   0.21097   0.22604   0.22678
 Alpha virt. eigenvalues --    0.26951   0.27924   0.32234   0.35450   0.36262
 Alpha virt. eigenvalues --    0.36833   0.38610   0.41022   0.42821   0.43448
 Alpha virt. eigenvalues --    0.44154   0.45103   0.52142   0.61524   0.64251
 Alpha virt. eigenvalues --    0.64299   0.70253   0.71197   0.72750   0.73577
 Alpha virt. eigenvalues --    0.77628   0.79414   0.81687   0.83308   0.89208
 Alpha virt. eigenvalues --    0.94191   0.96866   0.97860   0.99285   1.01235
 Alpha virt. eigenvalues --    1.05650   1.09301   1.09999   1.13256   1.17579
 Alpha virt. eigenvalues --    1.26411   1.29951   1.34086   1.35856   1.39570
 Alpha virt. eigenvalues --    1.42477   1.46526   1.48710   1.62270   1.75002
 Alpha virt. eigenvalues --    1.76977   1.77593   1.82178   1.90787   1.94981
 Alpha virt. eigenvalues --    1.95441   1.97471   2.04117   2.04690   2.06955
 Alpha virt. eigenvalues --    2.10253   2.19436   2.20332   2.27631   2.31360
 Alpha virt. eigenvalues --    2.32914   2.33905   2.50125   2.60497   2.63811
 Alpha virt. eigenvalues --    2.66267   2.83004   2.92926   2.96188   3.01957
 Alpha virt. eigenvalues --    3.05181   3.05627   3.08360   3.08387   3.08649
 Alpha virt. eigenvalues --    3.09842   3.17194   3.37740   3.44281   3.46102
 Alpha virt. eigenvalues --    3.55582   3.58045   3.63910   3.75033   3.87752
 Alpha virt. eigenvalues --    3.89574   3.96363   4.39210   4.40874   4.47274
 Alpha virt. eigenvalues --    4.49476   4.80518   5.52272   5.98111   6.35536
 Alpha virt. eigenvalues --   24.82967  24.99747  25.32944  25.39355  51.57541
          Condensed to atoms (all electrons):
               1          2          3          4          5          6
     1  C    7.370310  -1.570047   0.993914   0.031628  -0.982439   0.457012
     2  C   -1.570047   7.370310  -0.982439   0.031628   0.993914  -0.105982
     3  C    0.993914  -0.982439   6.401572  -0.028271  -0.553659   0.039841
     4  O    0.031628   0.031628  -0.028271   8.146831  -0.028271   0.010730
     5  C   -0.982439   0.993914  -0.553659  -0.028271   6.401572  -0.096018
     6  H    0.457012  -0.105982   0.039841   0.010730  -0.096018   0.527149
     7  H   -0.105982   0.457012  -0.096018   0.010730   0.039841  -0.004649
     8  H    0.019201  -0.092664   0.444083  -0.069165   0.008375   0.000423
     9  H   -0.092664   0.019201   0.008375  -0.069165   0.444083  -0.004687
               7          8          9
     1  C   -0.105982   0.019201  -0.092664
     2  C    0.457012  -0.092664   0.019201
     3  C   -0.096018   0.444083   0.008375
     4  O    0.010730  -0.069165  -0.069165
     5  C    0.039841   0.008375   0.444083
     6  H   -0.004649   0.000423  -0.004687
     7  H    0.527149  -0.004687   0.000423
     8  H   -0.004687   0.504615  -0.000668
     9  H    0.000423  -0.000668   0.504615
 Mulliken charges:
               1
     1  C   -0.120933
     2  C   -0.120933
     3  C   -0.227397
     4  O   -0.036674
     5  C   -0.227397
     6  H    0.176181
     7  H    0.176181
     8  H    0.190487
     9  H    0.190487
 Sum of Mulliken charges =  -0.00000
 Mulliken charges with hydrogens summed into heavy atoms:
               1
     1  C    0.055248
     2  C    0.055248
     3  C   -0.036911
     4  O   -0.036674
     5  C   -0.036911
 Electronic spatial extent (au):  <R**2>=            292.4634
 Charge=             -0.0000 electrons
 Dipole moment (field-independent basis, Debye):
    X=             -0.0000    Y=             -0.6912    Z=             -0.0000  Tot=              0.6912
 Quadrupole moment (field-independent basis, Debye-Ang):
   XX=            -24.6448   YY=            -28.8241   ZZ=            -32.7716
   XY=              0.0000   XZ=             -0.0000   YZ=              0.0000
 Traceless Quadrupole moment (field-independent basis, Debye-Ang):
   XX=              4.1021   YY=             -0.0773   ZZ=             -4.0247
   XY=              0.0000   XZ=             -0.0000   YZ=              0.0000
 Octapole moment (field-independent basis, Debye-Ang**2):
  XXX=             -0.0000  YYY=             -2.4156  ZZZ=             -0.0000  XYY=             -0.0000
  XXY=              4.3467  XXZ=             -0.0000  XZZ=             -0.0000  YZZ=              3.3795
  YYZ=             -0.0000  XYZ=             -0.0000
 Hexadecapole moment (field-independent basis, Debye-Ang**3):
 XXXX=           -168.3960 YYYY=           -170.2964 ZZZZ=            -38.7862 XXXY=              0.0000
 XXXZ=             -0.0000 YYYX=              0.0000 YYYZ=              0.0000 ZZZX=             -0.0000
 ZZZY=             -0.0000 XXYY=            -49.2372 XXZZ=            -43.4691 YYZZ=            -38.2270
 XXYZ=             -0.0000 YYXZ=             -0.0000 ZZXY=             -0.0000
 N-N= 1.609034995291D+02 E-N=-8.577166975117D+02  KE= 2.293497071243D+02
 No NMR shielding tensors so no spin-rotation constants.
 Leave Link  601 at Thu Feb 13 09:44:55 2025, MaxMem=   104857600 cpu:               0.1 elap:               0.1
 (Enter /sw/cluster/pub/apps//g16/l9999.exe)
 1\1\GINC-N01\SP\RMP2-FC\6-311++G(d,p)\C4H4O1\UNKNOWN\13-Feb-2025\0\\#P
  MP2/6-311++G** nosymm Density=MP2\\O\\0,1\C,0,0.71767905,-0.95775607,
 0.\C,0,-0.71767905,-0.95775607,0.\C,0,-1.09514409,0.34692303,0.\O,0,0.
 ,1.15852609,0.\C,0,1.09514409,0.34692303,0.\H,0,1.3734041,-1.81369714,
 0.\H,0,-1.3734041,-1.81369714,0.\H,0,-2.04976116,0.84459306,0.\H,0,2.0
 4976116,0.84459306,0.\\Version=ES64L-G16RevA.03\HF=-228.6830142\MP2=-2
 29.4359552\RMSD=3.252e-09\Dipole=0.,-0.2719573,0.\Quadrupole=3.0497775
 ,-0.0574791,-2.9922984,0.,0.,0.\PG=C02V [C2(O1),SGV(C4H4)]\\@


 ADVERTISING--  HE WHO HAS SOMETHING TO SELL AND GOES AND WHISPERS
                IN A WELL, IS NOT SO APT TO GET THE DOLLARS AS HE
                WHO CLIMBS A TREE AND HOLLERS.

                   -- FROM THE BACK OF A SUGAR PACKET
 Job cpu time:       0 days  0 hours  0 minutes  4.7 seconds.
 Elapsed time:       0 days  0 hours  0 minutes  5.5 seconds.
 File lengths (MBytes):  RWF=     10 Int=      0 D2E=      0 Chk=      3 Scr=      1
 Normal termination of Gaussian 16 at Thu Feb 13 09:44:55 2025.
