 Entering Gaussian System, Link 0=g09
 Initial command:
 /apps/software//g09/l1.exe /scratch/itamar/2430.cluster.abaxnet/Gau-8682.inp -scrdir=/scratch/itamar/2430.cluster.abaxnet/
 Entering Link 1 = /apps/software//g09/l1.exe PID=      8683.
  
 Copyright (c) 1988,1990,1992,1993,1995,1998,2003,2009, Gaussian, Inc.
                  All Rights Reserved.
  
 This is part of the Gaussian(R) 09 program.  It is based on
 the Gaussian(R) 03 system (copyright 2003, Gaussian, Inc.),
 the Gaussian(R) 98 system (copyright 1998, Gaussian, Inc.),
 the Gaussian(R) 94 system (copyright 1995, Gaussian, Inc.),
 the Gaussian 92(TM) system (copyright 1992, Gaussian, Inc.),
 the Gaussian 90(TM) system (copyright 1990, Gaussian, Inc.),
 the Gaussian 88(TM) system (copyright 1988, Gaussian, Inc.),
 the Gaussian 86(TM) system (copyright 1986, Carnegie Mellon
 University), and the Gaussian 82(TM) system (copyright 1983,
 Carnegie Mellon University). Gaussian is a federally registered
 trademark of Gaussian, Inc.
  
 This software contains proprietary and confidential information,
 including trade secrets, belonging to Gaussian, Inc.
  
 This software is provided under written license and may be
 used, copied, transmitted, or stored only in accord with that
 written license.
  
 The following legend is applicable only to US Government
 contracts under FAR:
  
                    RESTRICTED RIGHTS LEGEND
  
 Use, reproduction and disclosure by the US Government is
 subject to restrictions as set forth in subparagraphs (a)
 and (c) of the Commercial Computer Software - Restricted
 Rights clause in FAR 52.227-19.
  
 Gaussian, Inc.
 340 Quinnipiac St., Bldg. 40, Wallingford CT 06492
  
  
 ---------------------------------------------------------------
 Warning -- This program may not be used in any manner that
 competes with the business of Gaussian, Inc. or will provide
 assistance to any competitor of Gaussian, Inc.  The licensee
 of this program is prohibited from giving any competitor of
 Gaussian, Inc. access to this program.  By using this program,
 the user acknowledges that Gaussian, Inc. is engaged in the
 business of creating and licensing software in the field of
 computational chemistry and represents and warrants to the
 licensee that it is not a competitor of Gaussian, Inc. and that
 it will not use this program in any manner prohibited above.
 ---------------------------------------------------------------
  

 Cite this work as:
 Gaussian 09, Revision A.02,
 M. J. Frisch, G. W. Trucks, H. B. Schlegel, G. E. Scuseria, 
 M. A. Robb, J. R. Cheeseman, G. Scalmani, V. Barone, B. Mennucci, 
 G. A. Petersson, H. Nakatsuji, M. Caricato, X. Li, H. P. Hratchian, 
 A. F. Izmaylov, J. Bloino, G. Zheng, J. L. Sonnenberg, M. Hada, 
 M. Ehara, K. Toyota, R. Fukuda, J. Hasegawa, M. Ishida, T. Nakajima, 
 Y. Honda, O. Kitao, H. Nakai, T. Vreven, J. A. Montgomery, Jr., 
 J. E. Peralta, F. Ogliaro, M. Bearpark, J. J. Heyd, E. Brothers, 
 K. N. Kudin, V. N. Staroverov, R. Kobayashi, J. Normand, 
 K. Raghavachari, A. Rendell, J. C. Burant, S. S. Iyengar, J. Tomasi, 
 M. Cossi, N. Rega, J. M. Millam, M. Klene, J. E. Knox, J. B. Cross, 
 V. Bakken, C. Adamo, J. Jaramillo, R. Gomperts, R. E. Stratmann, 
 O. Yazyev, A. J. Austin, R. Cammi, C. Pomelli, J. W. Ochterski, 
 R. L. Martin, K. Morokuma, V. G. Zakrzewski, G. A. Voth, 
 P. Salvador, J. J. Dannenberg, S. Dapprich, A. D. Daniels, 
 O. Farkas, J. B. Foresman, J. V. Ortiz, J. Cioslowski, 
 and D. J. Fox, Gaussian, Inc., Wallingford CT, 2009.
 
 ******************************************
 Gaussian 09:  EM64L-G09RevA.02 11-Jun-2009
                 3-Dec-2021 
 ******************************************
 %Mem=3800MB
 %NProcShared=6
 Will use up to    6 processors via shared memory.
 %chk=/home/itamar/Aromaticity-test-set/T5-Pyramid/15/pyramid-15.chk
 -----------------------------
 #P MP2/6-311++G** DENSITY=MP2
 -----------------------------
 1/30=1,38=1/1;
 2/12=2,17=6,18=5,40=1/2;
 3/5=4,6=6,7=1111,11=9,16=1,25=1,30=1,71=1/1,2,3;
 4//1;
 5/5=2,38=5/2;
 8/6=4,10=2/1;
 9/15=1,16=-3/6;
 10/5=1,13=10/2;
 6/7=2,8=2,9=2,10=2,22=2/1;
 99/5=1,9=1/99;
 Leave Link    1 at Fri Dec  3 12:11:49 2021, MaxMem=  498073600 cpu:       0.2
 (Enter /apps/software//g09/l101.exe)
 ----------
 Pyramid-15
 ----------
 Symbolic Z-matrix:
 Charge =  0 Multiplicity = 1
 6                    -1.2091    0.6981   -0.04013 
 6                    -1.2091   -0.6981   -0.04013 
 6                     0.       -1.39626  -0.0401 
 6                     1.2091   -0.6981   -0.04013 
 6                     1.2091    0.6981   -0.04013 
 6                     0.        1.39626  -0.0401 
 1                    -2.11679   1.22205   0.2407 
 1                    -2.11679  -1.22205   0.2407 
 1                     0.       -2.44431   0.24073 
 1                     2.11679  -1.22205   0.2407 
 1                     2.11679   1.22205   0.2407 
 1                     0.        2.44431   0.24073 
 
 NAtoms=     12 NQM=     12 NQMF=      0 NMic=      0 NMicF=      0 NTot=     12.
                    Isotopes and Nuclear Properties:
 (Nuclear quadrupole moments (NQMom) in fm**2, nuclear magnetic moments (NMagM)
  in nuclear magnetons)

  Atom         1           2           3           4           5           6           7           8           9          10
 IAtWgt=          12          12          12          12          12          12           1           1           1           1
 AtmWgt=  12.0000000  12.0000000  12.0000000  12.0000000  12.0000000  12.0000000   1.0078250   1.0078250   1.0078250   1.0078250
 NucSpn=           0           0           0           0           0           0           1           1           1           1
 AtZEff=   0.0000000   0.0000000   0.0000000   0.0000000   0.0000000   0.0000000   0.0000000   0.0000000   0.0000000   0.0000000
 NQMom=    0.0000000   0.0000000   0.0000000   0.0000000   0.0000000   0.0000000   0.0000000   0.0000000   0.0000000   0.0000000
 NMagM=    0.0000000   0.0000000   0.0000000   0.0000000   0.0000000   0.0000000   2.7928460   2.7928460   2.7928460   2.7928460

  Atom        11          12
 IAtWgt=           1           1
 AtmWgt=   1.0078250   1.0078250
 NucSpn=           1           1
 AtZEff=   0.0000000   0.0000000
 NQMom=    0.0000000   0.0000000
 NMagM=    2.7928460   2.7928460
 Leave Link  101 at Fri Dec  3 12:11:49 2021, MaxMem=  498073600 cpu:       0.2
 (Enter /apps/software//g09/l202.exe)
                          Input orientation:                          
 ---------------------------------------------------------------------
 Center     Atomic      Atomic             Coordinates (Angstroms)
 Number     Number       Type             X           Y           Z
 ---------------------------------------------------------------------
      1          6           0       -1.209103    0.698100   -0.040128
      2          6           0       -1.209103   -0.698100   -0.040128
      3          6           0        0.000000   -1.396263   -0.040097
      4          6           0        1.209103   -0.698100   -0.040128
      5          6           0        1.209103    0.698100   -0.040128
      6          6           0        0.000000    1.396263   -0.040097
      7          1           0       -2.116788    1.222046    0.240696
      8          1           0       -2.116788   -1.222047    0.240696
      9          1           0        0.000000   -2.444307    0.240726
     10          1           0        2.116788   -1.222046    0.240696
     11          1           0        2.116788    1.222047    0.240696
     12          1           0        0.000000    2.444307    0.240726
 ---------------------------------------------------------------------
                    Distance matrix (angstroms):
                    1          2          3          4          5
     1  C    0.000000
     2  C    1.396200   0.000000
     3  C    2.418323   1.396195   0.000000
     4  C    2.792328   2.418206   1.396195   0.000000
     5  C    2.418206   2.792328   2.418323   1.396200   0.000000
     6  C    1.396195   2.418323   2.792526   2.418323   1.396195
     7  H    1.085022   2.142362   3.378636   3.850633   3.378599
     8  H    2.142363   1.085023   2.142426   3.378599   3.850633
     9  H    3.378688   2.142440   1.085015   2.142440   3.378688
    10  H    3.850633   3.378599   2.142426   1.085022   2.142362
    11  H    3.378599   3.850633   3.378636   2.142363   1.085023
    12  H    2.142440   3.378688   3.850823   3.378688   2.142440
                    6          7          8          9         10
     6  C    0.000000
     7  H    2.142426   0.000000
     8  H    3.378636   2.444093   0.000000
     9  H    3.850823   4.233549   2.444322   0.000000
    10  H    3.378636   4.888430   4.233576   2.444323   0.000000
    11  H    2.142426   4.233576   4.888431   4.233550   2.444093
    12  H    1.085015   2.444323   4.233550   4.888614   4.233549
                   11         12
    11  H    0.000000
    12  H    2.444322   0.000000
 Stoichiometry    C6H6
 Framework group  C2V[SGV(C2H2),X(C4H4)]
 Deg. of freedom     9
 Full point group                 C2V     NOp   4
 Largest Abelian subgroup         C2V     NOp   4
 Largest concise Abelian subgroup C2V     NOp   4
                         Standard orientation:                         
 ---------------------------------------------------------------------
 Center     Atomic      Atomic             Coordinates (Angstroms)
 Number     Number       Type             X           Y           Z
 ---------------------------------------------------------------------
      1          6           0       -1.209103    0.698100   -0.040128
      2          6           0       -1.209103   -0.698100   -0.040128
      3          6           0        0.000000   -1.396263   -0.040097
      4          6           0        1.209103   -0.698100   -0.040128
      5          6           0        1.209103    0.698100   -0.040128
      6          6           0        0.000000    1.396263   -0.040097
      7          1           0       -2.116788    1.222046    0.240696
      8          1           0       -2.116788   -1.222046    0.240696
      9          1           0        0.000000   -2.444307    0.240726
     10          1           0        2.116788   -1.222046    0.240696
     11          1           0        2.116788    1.222046    0.240696
     12          1           0        0.000000    2.444307    0.240726
 ---------------------------------------------------------------------
 Rotational constants (GHZ):      5.6991643      5.6986020      2.8636476
 Leave Link  202 at Fri Dec  3 12:11:49 2021, MaxMem=  498073600 cpu:       0.0
 (Enter /apps/software//g09/l301.exe)
 Standard basis: 6-311++G(d,p) (5D, 7F)
 Ernie: Thresh=  0.10000D-02 Tol=  0.10000D-05 Strict=F.
 There are    51 symmetry adapted basis functions of A1  symmetry.
 There are    36 symmetry adapted basis functions of A2  symmetry.
 There are    36 symmetry adapted basis functions of B1  symmetry.
 There are    51 symmetry adapted basis functions of B2  symmetry.
 Integral buffers will be    131072 words long.
 Raffenetti 1 integral format.
 Two-electron integral symmetry is turned on.
   174 basis functions,   270 primitive gaussians,   180 cartesian basis functions
    21 alpha electrons       21 beta electrons
       nuclear repulsion energy       203.5390776902 Hartrees.
 IExCor=    0 DFT=F Ex=HF Corr=None ExCW=0 ScaHFX=  1.000000
 ScaDFX=  1.000000  1.000000  1.000000  1.000000 ScalE2=  1.000000  1.000000
 IRadAn=      0 IRanWt=     -1 IRanGd=            0 ICorTp=0
 NAtoms=   12 NActive=   12 NUniq=    4 SFac= 3.00D+00 NAtFMM=   80 NAOKFM=F Big=F
 Leave Link  301 at Fri Dec  3 12:11:49 2021, MaxMem=  498073600 cpu:       0.2
 (Enter /apps/software//g09/l302.exe)
 NPDir=0 NMtPBC=     1 NCelOv=     1 NCel=       1 NClECP=     1 NCelD=      1
         NCelK=      1 NCelE2=     1 NClLst=     1 CellRange=     0.0.
 One-electron integrals computed using PRISM.
 One-electron integral symmetry used in STVInt
 NBasis=   174 RedAO= T  NBF=    51    36    36    51
 NBsUse=   173 1.00D-06 NBFU=    51    36    36    50
 Leave Link  302 at Fri Dec  3 12:11:50 2021, MaxMem=  498073600 cpu:       1.4
 (Enter /apps/software//g09/l303.exe)
 DipDrv:  MaxL=1.
 Leave Link  303 at Fri Dec  3 12:11:50 2021, MaxMem=  498073600 cpu:       0.1
 (Enter /apps/software//g09/l401.exe)
 Harris functional with IExCor=  205 diagonalized for initial guess.
 ExpMin= 3.60D-02 ExpMax= 4.56D+03 ExpMxC= 6.82D+02 IAcc=3 IRadAn=         0 AccDes= 0.00D+00
 HarFok:  IExCor=  205 AccDes= 0.00D+00 IRadAn=         0 IDoV= 1
 ScaDFX=  1.000000  1.000000  1.000000  1.000000
 FoFCou: FMM=F IPFlag=           0 FMFlag=      100000 FMFlg1=           0
         NFxFlg=           0 DoJE=T BraDBF=F KetDBF=T FulRan=T
         Omega=  0.000000  0.000000  1.000000  0.000000  0.000000 ICntrl=     500 IOpCl=  0
         NMat0=    1 NMatS0=    1 NMatT0=    0 NMatD0=    1 NMtDS0=    0 NMtDT0=    0
         I1Cent=           4 NGrid=           0.
 Petite list used in FoFCou.
 Harris En= -231.138096283481    
 Initial guess orbital symmetries:
       Occupied  (A1) (B2) (B1) (A1) (A2) (B2) (A1) (B2) (B1) (A1)
                 (A2) (A1) (B1) (B2) (B2) (B1) (A1) (A1) (A2) (B2)
                 (B1)
       Virtual   (A1) (A2) (A1) (B2) (B1) (B2) (A1) (A2) (A1) (A1)
                 (B2) (B1) (B2) (B1) (A1) (A2) (A1) (B1) (B2) (B1)
                 (B2) (A1) (A2) (B1) (B2) (A2) (A1) (B2) (A1) (B2)
                 (A2) (A1) (A1) (A2) (B1) (B2) (B1) (B2) (B2) (A2)
                 (A1) (A2) (B1) (A1) (A2) (B2) (A1) (B1) (B2) (A1)
                 (A2) (A1) (B1) (B2) (A2) (A1) (B2) (B2) (B1) (A2)
                 (A1) (A1) (B2) (B1) (B2) (A2) (A1) (B1) (B2) (A2)
                 (B2) (A1) (A1) (A2) (B1) (B2) (B1) (B2) (A1) (A2)
                 (A1) (B1) (A1) (B2) (B1) (A2) (A1) (B2) (B1) (A2)
                 (A1) (B2) (A1) (B2) (B1) (A2) (A1) (B1) (A2) (B2)
                 (B1) (A2) (A1) (B2) (B1) (B2) (A2) (A1) (B2) (A2)
                 (A1) (A2) (A1) (B2) (B1) (B1) (B2) (B2) (A1) (A1)
                 (A2) (A1) (B2) (B1) (B2) (B1) (B2) (A2) (A1) (A2)
                 (A2) (A1) (B1) (B2) (A1) (A2) (B1) (B2) (A1) (B2)
                 (A2) (A1) (B1) (B2) (B2) (A2) (A1) (B2) (B1) (A2)
                 (A1) (B2)
 The electronic state of the initial guess is 1-A1.
 Leave Link  401 at Fri Dec  3 12:11:50 2021, MaxMem=  498073600 cpu:       2.1
 (Enter /apps/software//g09/l502.exe)
 Closed shell SCF:
 Requested convergence on RMS density matrix=1.00D-08 within 128 cycles.
 Requested convergence on MAX density matrix=1.00D-06.
 Requested convergence on             energy=1.00D-06.
 No special actions if energy rises.
 Using DIIS extrapolation, IDIIS=  1040.
 Integral symmetry usage will be decided dynamically.
 Keep R1 ints in memory in canonical form, NReq=135773479.
 IEnd=      118490 IEndB=      118490 NGot=   498073600 MDV=   365314108
 LenX=   365314108 LenY=   365281267
 Symmetry not used in FoFDir.
 MinBra= 0 MaxBra= 2 Meth= 1.
 IRaf=       0 NMat=   1 IRICut=       1 DoRegI=T DoRafI=F ISym2E= 0 JSym2E=0.

 Cycle   1  Pass 1  IDiag  1:
 E= -230.436301508934    
 DIIS: error= 6.28D-02 at cycle   1 NSaved=   1.
 NSaved= 1 IEnMin= 1 EnMin= -230.436301508934     IErMin= 1 ErrMin= 6.28D-02
 ErrMax= 6.28D-02 EMaxC= 1.00D-01 BMatC= 5.16D-01 BMatP= 5.16D-01
 IDIUse=3 WtCom= 3.72D-01 WtEn= 6.28D-01
 Coeff-Com:  0.100D+01
 Coeff-En:   0.100D+01
 Coeff:      0.100D+01
 Gap=     0.330 Goal=   None    Shift=    0.000
 GapD=    0.330 DampG=1.000 DampE=0.500 DampFc=0.5000 IDamp=-1.
 Damping current iteration by 5.00D-01
 RMSDP=3.62D-03 MaxDP=7.08D-02              OVMax= 1.61D-01

 Cycle   2  Pass 1  IDiag  1:
 E= -230.595464488939     Delta-E=       -0.159162980005 Rises=F Damp=T
 DIIS: error= 3.30D-02 at cycle   2 NSaved=   2.
 NSaved= 2 IEnMin= 2 EnMin= -230.595464488939     IErMin= 2 ErrMin= 3.30D-02
 ErrMax= 3.30D-02 EMaxC= 1.00D-01 BMatC= 1.11D-01 BMatP= 5.16D-01
 IDIUse=3 WtCom= 6.70D-01 WtEn= 3.30D-01
 Coeff-Com: -0.684D+00 0.168D+01
 Coeff-En:   0.000D+00 0.100D+01
 Coeff:     -0.458D+00 0.146D+01
 Gap=     0.389 Goal=   None    Shift=    0.000
 RMSDP=1.77D-03 MaxDP=3.11D-02 DE=-1.59D-01 OVMax= 5.03D-02

 Cycle   3  Pass 1  IDiag  1:
 E= -230.737876571175     Delta-E=       -0.142412082236 Rises=F Damp=F
 DIIS: error= 3.36D-03 at cycle   3 NSaved=   3.
 NSaved= 3 IEnMin= 3 EnMin= -230.737876571175     IErMin= 3 ErrMin= 3.36D-03
 ErrMax= 3.36D-03 EMaxC= 1.00D-01 BMatC= 1.15D-03 BMatP= 1.11D-01
 IDIUse=3 WtCom= 9.66D-01 WtEn= 3.36D-02
 Coeff-Com: -0.874D-01 0.137D+00 0.950D+00
 Coeff-En:   0.000D+00 0.000D+00 0.100D+01
 Coeff:     -0.844D-01 0.132D+00 0.952D+00
 Gap=     0.380 Goal=   None    Shift=    0.000
 RMSDP=3.17D-04 MaxDP=6.68D-03 DE=-1.42D-01 OVMax= 8.94D-03

 Cycle   4  Pass 1  IDiag  1:
 E= -230.738967507908     Delta-E=       -0.001090936733 Rises=F Damp=F
 DIIS: error= 6.12D-04 at cycle   4 NSaved=   4.
 NSaved= 4 IEnMin= 4 EnMin= -230.738967507908     IErMin= 4 ErrMin= 6.12D-04
 ErrMax= 6.12D-04 EMaxC= 1.00D-01 BMatC= 2.52D-05 BMatP= 1.15D-03
 IDIUse=3 WtCom= 9.94D-01 WtEn= 6.12D-03
 Coeff-Com:  0.776D-02-0.190D-01-0.871D-02 0.102D+01
 Coeff-En:   0.000D+00 0.000D+00 0.000D+00 0.100D+01
 Coeff:      0.771D-02-0.189D-01-0.866D-02 0.102D+01
 Gap=     0.379 Goal=   None    Shift=    0.000
 RMSDP=9.04D-05 MaxDP=1.14D-03 DE=-1.09D-03 OVMax= 1.78D-03

 Cycle   5  Pass 1  IDiag  1:
 E= -230.739010921845     Delta-E=       -0.000043413937 Rises=F Damp=F
 DIIS: error= 1.27D-04 at cycle   5 NSaved=   5.
 NSaved= 5 IEnMin= 5 EnMin= -230.739010921845     IErMin= 5 ErrMin= 1.27D-04
 ErrMax= 1.27D-04 EMaxC= 1.00D-01 BMatC= 1.73D-06 BMatP= 2.52D-05
 IDIUse=3 WtCom= 9.99D-01 WtEn= 1.27D-03
 Coeff-Com:  0.305D-02-0.403D-02-0.428D-01-0.189D+00 0.123D+01
 Coeff-En:   0.000D+00 0.000D+00 0.000D+00 0.000D+00 0.100D+01
 Coeff:      0.305D-02-0.403D-02-0.427D-01-0.189D+00 0.123D+01
 Gap=     0.380 Goal=   None    Shift=    0.000
 RMSDP=3.28D-05 MaxDP=5.62D-04 DE=-4.34D-05 OVMax= 6.57D-04

 Cycle   6  Pass 1  IDiag  1:
 E= -230.739014579835     Delta-E=       -0.000003657990 Rises=F Damp=F
 DIIS: error= 9.05D-06 at cycle   6 NSaved=   6.
 NSaved= 6 IEnMin= 6 EnMin= -230.739014579835     IErMin= 6 ErrMin= 9.05D-06
 ErrMax= 9.05D-06 EMaxC= 1.00D-01 BMatC= 1.09D-08 BMatP= 1.73D-06
 IDIUse=1 WtCom= 1.00D+00 WtEn= 0.00D+00
 Coeff-Com: -0.245D-03 0.360D-03 0.410D-02 0.922D-02-0.120D+00 0.111D+01
 Coeff:     -0.245D-03 0.360D-03 0.410D-02 0.922D-02-0.120D+00 0.111D+01
 Gap=     0.380 Goal=   None    Shift=    0.000
 RMSDP=3.65D-06 MaxDP=4.69D-05 DE=-3.66D-06 OVMax= 4.74D-05

 Cycle   7  Pass 1  IDiag  1:
 E= -230.739014602925     Delta-E=       -0.000000023090 Rises=F Damp=F
 DIIS: error= 3.26D-06 at cycle   7 NSaved=   7.
 NSaved= 7 IEnMin= 7 EnMin= -230.739014602925     IErMin= 7 ErrMin= 3.26D-06
 ErrMax= 3.26D-06 EMaxC= 1.00D-01 BMatC= 8.55D-10 BMatP= 1.09D-08
 IDIUse=1 WtCom= 1.00D+00 WtEn= 0.00D+00
 Coeff-Com: -0.139D-03 0.191D-03 0.200D-02 0.754D-02-0.586D-01 0.150D+00
 Coeff-Com:  0.899D+00
 Coeff:     -0.139D-03 0.191D-03 0.200D-02 0.754D-02-0.586D-01 0.150D+00
 Coeff:      0.899D+00
 Gap=     0.380 Goal=   None    Shift=    0.000
 RMSDP=6.67D-07 MaxDP=8.47D-06 DE=-2.31D-08 OVMax= 8.51D-06

 Cycle   8  Pass 1  IDiag  1:
 E= -230.739014604222     Delta-E=       -0.000000001297 Rises=F Damp=F
 DIIS: error= 5.50D-07 at cycle   8 NSaved=   8.
 NSaved= 8 IEnMin= 8 EnMin= -230.739014604222     IErMin= 8 ErrMin= 5.50D-07
 ErrMax= 5.50D-07 EMaxC= 1.00D-01 BMatC= 4.07D-11 BMatP= 8.55D-10
 IDIUse=1 WtCom= 1.00D+00 WtEn= 0.00D+00
 Coeff-Com:  0.244D-04-0.339D-04-0.450D-03-0.139D-02 0.134D-01-0.843D-01
 Coeff-Com: -0.118D+00 0.119D+01
 Coeff:      0.244D-04-0.339D-04-0.450D-03-0.139D-02 0.134D-01-0.843D-01
 Coeff:     -0.118D+00 0.119D+01
 Gap=     0.380 Goal=   None    Shift=    0.000
 RMSDP=2.50D-07 MaxDP=4.42D-06 DE=-1.30D-09 OVMax= 3.83D-06

 Cycle   9  Pass 1  IDiag  1:
 E= -230.739014604345     Delta-E=       -0.000000000124 Rises=F Damp=F
 DIIS: error= 1.74D-07 at cycle   9 NSaved=   9.
 NSaved= 9 IEnMin= 9 EnMin= -230.739014604345     IErMin= 9 ErrMin= 1.74D-07
 ErrMax= 1.74D-07 EMaxC= 1.00D-01 BMatC= 1.58D-12 BMatP= 4.07D-11
 IDIUse=1 WtCom= 1.00D+00 WtEn= 0.00D+00
 Coeff-Com: -0.704D-05 0.984D-05 0.136D-03 0.389D-03-0.397D-02 0.296D-01
 Coeff-Com:  0.206D-01-0.450D+00 0.140D+01
 Coeff:     -0.704D-05 0.984D-05 0.136D-03 0.389D-03-0.397D-02 0.296D-01
 Coeff:      0.206D-01-0.450D+00 0.140D+01
 Gap=     0.380 Goal=   None    Shift=    0.000
 RMSDP=4.52D-08 MaxDP=7.46D-07 DE=-1.24D-10 OVMax= 1.14D-06

 Cycle  10  Pass 1  IDiag  1:
 E= -230.739014604353     Delta-E=       -0.000000000008 Rises=F Damp=F
 DIIS: error= 3.70D-08 at cycle  10 NSaved=  10.
 NSaved=10 IEnMin=10 EnMin= -230.739014604353     IErMin=10 ErrMin= 3.70D-08
 ErrMax= 3.70D-08 EMaxC= 1.00D-01 BMatC= 8.37D-14 BMatP= 1.58D-12
 IDIUse=1 WtCom= 1.00D+00 WtEn= 0.00D+00
 Coeff-Com: -0.935D-06 0.142D-05 0.131D-04 0.423D-04-0.415D-03 0.242D-02
 Coeff-Com:  0.375D-02-0.324D-01-0.507D-01 0.108D+01
 Coeff:     -0.935D-06 0.142D-05 0.131D-04 0.423D-04-0.415D-03 0.242D-02
 Coeff:      0.375D-02-0.324D-01-0.507D-01 0.108D+01
 Gap=     0.380 Goal=   None    Shift=    0.000
 RMSDP=5.38D-09 MaxDP=1.06D-07 DE=-8.13D-12 OVMax= 2.26D-07

 SCF Done:  E(RHF) =  -230.739014604     A.U. after   10 cycles
             Convg  =    0.5382D-08             -V/T =  2.0013
 KE= 2.304389804800D+02 PE=-9.438045534431D+02 EE= 2.790874806686D+02
 Leave Link  502 at Fri Dec  3 12:11:58 2021, MaxMem=  498073600 cpu:      47.4
 (Enter /apps/software//g09/l801.exe)
 ExpMin= 3.60D-02 ExpMax= 4.56D+03 ExpMxC= 6.82D+02 IAcc=3 IRadAn=         5 AccDes= 0.00D+00
 HarFok:  IExCor=  205 AccDes= 0.00D+00 IRadAn=         5 IDoV=-2
 ScaDFX=  1.000000  1.000000  1.000000  1.000000
 Largest valence mixing into a core orbital is  1.52D-04
 Largest core mixing into a valence orbital is  3.99D-05
 Range of M.O.s used for correlation:     7   173
 NBasis=   174 NAE=    21 NBE=    21 NFC=     6 NFV=     0
 NROrb=    167 NOA=    15 NOB=    15 NVA=   152 NVB=   152

 **** Warning!!: The largest alpha MO coefficient is  0.98363488D+02

 Leave Link  801 at Fri Dec  3 12:11:58 2021, MaxMem=  498073600 cpu:       1.2
 (Enter /apps/software//g09/l906.exe)
 Frozen-core derivative calculation, NFC=   6 NFV=   0.
 FulOut=F Deriv=T AODrv=F NAtomX=    12
   MMem=         572  MDisk=          15 MDiskD=          15
  W3Min=      653940 MinDsk=     1009670 NBas6D=         180
 NBas2D=       16542    NTT=       16290    LW2=     2040000
    MDV=   497696781 MDiskM=       38248 NBas2p=        4822
 Fully in-core method, ICMem=   280915704.
 IMap=   1   2   3   4   5   6   7   8   9  10  11  12  13  14  15  16  17  18  19  20
 IMap=  21
 JobTyp=1 Pass  1 fully in-core, NPsUse=  6.
 Compute canonical integrals, IntTyp=   4.
 Symmetry not used in FoFDir.
 MinBra= 0 MaxBra= 2 Meth= 1.
 IRaf=       0 NMat=   1 IRICut=       1 DoRegI=T DoRafI=F ISym2E= 0 JSym2E=0.
 Spin components of T(2) and E(2):
     alpha-alpha T2 =       0.4273348909D-01 E2=     -0.1082323851D+00
     alpha-beta  T2 =       0.2249782620D+00 E2=     -0.6148871108D+00
     beta-beta   T2 =       0.4273348909D-01 E2=     -0.1082323851D+00
 The integrals were generated   1 times.
 ANorm=    0.1144746802D+01
 E2 =    -0.8313518811D+00 EUMP2 =    -0.23157036648549D+03
 Leave Link  906 at Fri Dec  3 12:12:26 2021, MaxMem=  498073600 cpu:     163.7
 (Enter /apps/software//g09/l1002.exe)
 Minotr:  Closed shell wavefunction.
          Computing MP2/KS-MP2 derivatives.
          Using Z-Vector for PSCF gradient.
          Skipping F1 and S1 gradient terms here.
          Frozen-core window.
          Direct CPHF calculation.
          Differentiating once with respect to electric field.
                with respect to dipole field.
          Electric field/nuclear overlap derivatives assumed to be zero.
          Using symmetry in CPHF.
          Requested convergence is 1.0D-10 RMS, and 1.0D-09 maximum.
          NewPWx=F KeepS1=T KeepF1=T KeepIn=T MapXYZ=F SortEE=F KeepMc=T.
          MDV=     498073500 using IRadAn=       0.
          Keep R1 ints in memory in canonical form, NReq=133512101.
 Symmetry not used in FoFDir.
 MinBra= 0 MaxBra= 2 Meth= 1.
 IRaf=       0 NMat=   1 IRICut=       1 DoRegI=T DoRafI=F ISym2E= 0 JSym2E=0.
          Solving linear equations separately, MaxMat=       0.
          There are     1 degrees of freedom in the 1st order CPHF.  IDoFFX=0.
 LinEq1:  Iter=  0 NonCon=     1 RMS=3.43D-03 Max=6.82D-02
 AX will form     1 AO Fock derivatives at one time.
 LinEq1:  Iter=  1 NonCon=     1 RMS=8.35D-04 Max=1.48D-02
 LinEq1:  Iter=  2 NonCon=     1 RMS=2.37D-04 Max=5.30D-03
 LinEq1:  Iter=  3 NonCon=     1 RMS=5.08D-05 Max=7.68D-04
 LinEq1:  Iter=  4 NonCon=     1 RMS=8.36D-06 Max=9.41D-05
 LinEq1:  Iter=  5 NonCon=     1 RMS=1.50D-06 Max=2.48D-05
 LinEq1:  Iter=  6 NonCon=     1 RMS=4.59D-07 Max=7.06D-06
 LinEq1:  Iter=  7 NonCon=     1 RMS=7.73D-08 Max=1.01D-06
 LinEq1:  Iter=  8 NonCon=     1 RMS=7.94D-09 Max=1.37D-07
 LinEq1:  Iter=  9 NonCon=     1 RMS=8.97D-10 Max=1.05D-08
 LinEq1:  Iter= 10 NonCon=     1 RMS=3.22D-10 Max=5.71D-09
 LinEq1:  Iter= 11 NonCon=     1 RMS=7.04D-11 Max=1.03D-09
 LinEq1:  Iter= 12 NonCon=     0 RMS=8.59D-12 Max=1.21D-10
 Linear equations converged to 1.000D-10 1.000D-09 after    12 iterations.
 End of Minotr Frequency-dependent properties file   721 does not exist.
 End of Minotr Frequency-dependent properties file   722 does not exist.
 Leave Link 1002 at Fri Dec  3 12:12:35 2021, MaxMem=  498073600 cpu:      56.9
 (Enter /apps/software//g09/l601.exe)
 Copying SCF densities to generalized density rwf, IOpCl= 0 IROHF=0.

 **********************************************************************

            Population analysis using the MP2 density.

 **********************************************************************

 Orbital symmetries:
       Occupied  (A1) (B2) (B1) (A1) (A2) (B2) (A1) (B2) (B1) (A1)
                 (A2) (A1) (B2) (B1) (B2) (B1) (A1) (A1) (A2) (B2)
                 (B1)
       Virtual   (A1) (B1) (B2) (A1) (A2) (B2) (A1) (A2) (A1) (B2)
                 (B1) (A1) (B1) (A2) (A1) (A1) (B1) (B2) (B2) (A1)
                 (A2) (A1) (A2) (B2) (B1) (B2) (B1) (B2) (A1) (A1)
                 (A2) (A2) (B2) (B2) (B1) (A1) (A2) (B2) (A2) (A1)
                 (B2) (B1) (A1) (B1) (A1) (B2) (B1) (B2) (B1) (B2)
                 (A2) (A1) (A2) (A1) (A1) (A2) (B2) (B2) (B1) (B2)
                 (B1) (A1) (A2) (A1) (A2) (A1) (B2) (B2) (B1) (B2)
                 (A2) (A1) (A2) (A1) (B1) (B2) (B2) (B1) (A1) (A2)
                 (A1) (B1) (B2) (B1) (A1) (A2) (A1) (B2) (B1) (B2)
                 (A2) (A1) (A1) (B2) (B1) (A1) (A2) (B1) (A2) (B2)
                 (B1) (B2) (A2) (A1) (B2) (B1) (A2) (A1) (B2) (A1)
                 (A2) (A2) (A1) (B2) (B1) (B2) (B1) (B2) (A1) (B2)
                 (B1) (A1) (A2) (B2) (A1) (B1) (B2) (A2) (A2) (A1)
                 (A2) (A1) (B2) (B1) (A1) (A2) (A1) (B1) (B2) (B2)
                 (A2) (A1) (B2) (B1) (B2) (A2) (A1) (B2) (B1) (A2)
                 (A1) (B2)
 The electronic state is 1-A1.
 Alpha  occ. eigenvalues --  -11.24075 -11.24019 -11.24018 -11.23896 -11.23896
 Alpha  occ. eigenvalues --  -11.23837  -1.15317  -1.01777  -1.01776  -0.82562
 Alpha  occ. eigenvalues --   -0.82561  -0.71052  -0.64174  -0.62106  -0.58948
 Alpha  occ. eigenvalues --   -0.58945  -0.50233  -0.49470  -0.49468  -0.33701
 Alpha  occ. eigenvalues --   -0.33700
 Alpha virt. eigenvalues --    0.04260   0.05152   0.05152   0.06897   0.06897
 Alpha virt. eigenvalues --    0.09699   0.10465   0.10466   0.12501   0.14763
 Alpha virt. eigenvalues --    0.14763   0.16149   0.16355   0.18277   0.18278
 Alpha virt. eigenvalues --    0.19356   0.19385   0.19385   0.20582   0.21261
 Alpha virt. eigenvalues --    0.21262   0.21648   0.21649   0.22754   0.22755
 Alpha virt. eigenvalues --    0.24582   0.25171   0.25240   0.28523   0.28867
 Alpha virt. eigenvalues --    0.28868   0.30389   0.34223   0.38057   0.38058
 Alpha virt. eigenvalues --    0.42880   0.42881   0.44419   0.48499   0.48500
 Alpha virt. eigenvalues --    0.50523   0.50523   0.59582   0.60431   0.71644
 Alpha virt. eigenvalues --    0.72485   0.73068   0.73068   0.75091   0.75092
 Alpha virt. eigenvalues --    0.75422   0.76239   0.76240   0.79402   0.80959
 Alpha virt. eigenvalues --    0.80960   0.85154   0.90397   0.90397   0.92639
 Alpha virt. eigenvalues --    0.92653   0.93620   0.93836   0.93839   0.94368
 Alpha virt. eigenvalues --    0.94369   0.96535   1.09439   1.09439   1.10027
 Alpha virt. eigenvalues --    1.12853   1.13704   1.13704   1.19754   1.23602
 Alpha virt. eigenvalues --    1.32272   1.41450   1.41453   1.51003   1.51005
 Alpha virt. eigenvalues --    1.55919   1.72112   1.77039   1.77048   1.77940
 Alpha virt. eigenvalues --    1.82018   1.82019   1.89407   1.89413   1.93442
 Alpha virt. eigenvalues --    1.96517   1.96521   1.99589   2.04516   2.04520
 Alpha virt. eigenvalues --    2.08128   2.08130   2.12877   2.13579   2.19927
 Alpha virt. eigenvalues --    2.19930   2.30012   2.31448   2.31451   2.32250
 Alpha virt. eigenvalues --    2.32250   2.40499   2.40502   2.60672   2.69784
 Alpha virt. eigenvalues --    2.69789   2.70794   2.73313   2.79788   2.79794
 Alpha virt. eigenvalues --    2.88980   2.91306   2.91310   2.98550   2.98903
 Alpha virt. eigenvalues --    2.98905   2.99025   2.99025   3.05177   3.06235
 Alpha virt. eigenvalues --    3.21363   3.21365   3.25161   3.28630   3.28638
 Alpha virt. eigenvalues --    3.31547   3.31547   3.51824   3.53793   3.76527
 Alpha virt. eigenvalues --    3.76529   3.88793   3.89497   3.89500   4.00214
 Alpha virt. eigenvalues --    4.39905   4.39907   4.52139   4.52912   4.52916
 Alpha virt. eigenvalues --    5.23725  24.72834  25.12525  25.12526  25.24574
 Alpha virt. eigenvalues --   25.24574  25.33234
          Condensed to atoms (all electrons):
              1          2          3          4          5          6
     1  C    5.499646   0.269651  -0.205987   0.258459  -0.213014   0.259762
     2  C    0.269651   5.499646   0.259762  -0.213014   0.258459  -0.205987
     3  C   -0.205987   0.259762   5.520877   0.259762  -0.205987   0.244107
     4  C    0.258459  -0.213014   0.259762   5.499646   0.269651  -0.205987
     5  C   -0.213014   0.258459  -0.205987   0.269651   5.499646   0.259762
     6  C    0.259762  -0.205987   0.244107  -0.205987   0.259762   5.520877
     7  H    0.415958  -0.070205  -0.008707   0.024365  -0.008772  -0.069738
     8  H   -0.070205   0.415958  -0.069738  -0.008772   0.024365  -0.008707
     9  H   -0.008069  -0.070971   0.417384  -0.070971  -0.008069   0.023972
    10  H    0.024365  -0.008772  -0.069738   0.415958  -0.070205  -0.008707
    11  H   -0.008772   0.024365  -0.008707  -0.070205   0.415958  -0.069738
    12  H   -0.070971  -0.008069   0.023972  -0.008069  -0.070971   0.417384
              7          8          9         10         11         12
     1  C    0.415958  -0.070205  -0.008069   0.024365  -0.008772  -0.070971
     2  C   -0.070205   0.415958  -0.070971  -0.008772   0.024365  -0.008069
     3  C   -0.008707  -0.069738   0.417384  -0.069738  -0.008707   0.023972
     4  C    0.024365  -0.008772  -0.070971   0.415958  -0.070205  -0.008069
     5  C   -0.008772   0.024365  -0.008069  -0.070205   0.415958  -0.070971
     6  C   -0.069738  -0.008707   0.023972  -0.008707  -0.069738   0.417384
     7  H    0.573176  -0.004100  -0.001140   0.001373  -0.001152  -0.004189
     8  H   -0.004100   0.573176  -0.004189  -0.001152   0.001373  -0.001140
     9  H   -0.001140  -0.004189   0.573628  -0.004189  -0.001140   0.001364
    10  H    0.001373  -0.001152  -0.004189   0.573176  -0.004100  -0.001140
    11  H   -0.001152   0.001373  -0.001140  -0.004100   0.573176  -0.004189
    12  H   -0.004189  -0.001140   0.001364  -0.001140  -0.004189   0.573628
 Mulliken atomic charges:
              1
     1  C   -0.150824
     2  C   -0.150824
     3  C   -0.157002
     4  C   -0.150824
     5  C   -0.150824
     6  C   -0.157002
     7  H    0.153130
     8  H    0.153130
     9  H    0.152389
    10  H    0.153130
    11  H    0.153130
    12  H    0.152389
 Sum of Mulliken atomic charges =   0.00000
 Mulliken charges with hydrogens summed into heavy atoms:
              1
     1  C    0.002307
     2  C    0.002307
     3  C   -0.004613
     4  C    0.002307
     5  C    0.002307
     6  C   -0.004613
 Sum of Mulliken charges with hydrogens summed into heavy atoms =   0.00000
 Electronic spatial extent (au):  <R**2>=            459.5096
 Charge=              0.0000 electrons
 Dipole moment (field-independent basis, Debye):
    X=              0.0000    Y=              0.0000    Z=              1.1239  Tot=              1.1239
 Quadrupole moment (field-independent basis, Debye-Ang):
   XX=            -33.2369   YY=            -33.2357   ZZ=            -40.3844
   XY=              0.0000   XZ=              0.0000   YZ=              0.0000
 Traceless Quadrupole moment (field-independent basis, Debye-Ang):
   XX=              2.3821   YY=              2.3833   ZZ=             -4.7654
   XY=              0.0000   XZ=              0.0000   YZ=              0.0000
 Octapole moment (field-independent basis, Debye-Ang**2):
  XXX=              0.0000  YYY=              0.0000  ZZZ=              1.9015  XYY=              0.0000
  XXY=              0.0000  XXZ=              5.0500  XZZ=              0.0000  YZZ=              0.0000
  YYZ=              5.0498  XYZ=              0.0000
 Hexadecapole moment (field-independent basis, Debye-Ang**3):
 XXXX=           -285.5420 YYYY=           -285.5445 ZZZZ=            -52.8686 XXXY=              0.0000
 XXXZ=              0.0000 YYYX=              0.0000 YYYZ=              0.0000 ZZZX=              0.0000
 ZZZY=              0.0000 XXYY=            -95.1854 XXZZ=            -65.1155 YYZZ=            -65.1182
 XXYZ=              0.0000 YYXZ=              0.0000 ZZXY=              0.0000
 N-N= 2.035390776902D+02 E-N=-9.446529514643D+02  KE= 2.314624590393D+02
 Symmetry A1   KE= 7.645521270627D+01
 Symmetry A2   KE= 3.795159838389D+01
 Symmetry B1   KE= 4.257842537593D+01
 Symmetry B2   KE= 7.447722257316D+01
 No NMR shielding tensors so no spin-rotation constants.
 Leave Link  601 at Fri Dec  3 12:12:36 2021, MaxMem=  498073600 cpu:       2.0
 (Enter /apps/software//g09/l9999.exe)
 1\1\GINC-DLT01\SP\RMP2-FC\6-311++G(d,p)\C6H6\ITAMAR\03-Dec-2021\0\\#P 
 MP2/6-311++G** DENSITY=MP2\\Pyramid-15\\0,1\C,0,-1.209103,0.6981,-0.04
 0128\C,0,-1.209103,-0.6981,-0.040128\C,0,0.,-1.396263,-0.040097\C,0,1.
 209103,-0.6981,-0.040128\C,0,1.209103,0.6981,-0.040128\C,0,0.,1.396263
 ,-0.040097\H,0,-2.116788,1.222046,0.240696\H,0,-2.116788,-1.222047,0.2
 40696\H,0,0.,-2.444307,0.240726\H,0,2.116788,-1.222046,0.240696\H,0,2.
 116788,1.222047,0.240696\H,0,0.,2.444307,0.240726\\Version=EM64L-G09Re
 vA.02\State=1-A1\HF=-230.7390146\MP2=-231.5703665\RMSD=5.382e-09\Dipol
 e=0.,0.,0.4421779\Quadrupole=1.7710218,1.7719243,-3.5429461,0.,0.,0.\P
 G=C02V [SGV(C2H2),X(C4H4)]\\@


 A MAN BEGINS CUTTING HIS WISDOM TEETH THE 1ST
 TIME HE BITES OFF MORE THAN HE CAN CHEW.
 Job cpu time:  0 days  0 hours  4 minutes 36.9 seconds.
 File lengths (MBytes):  RWF=     14 Int=      0 D2E=      0 Chk=      4 Scr=      1
 Normal termination of Gaussian 09 at Fri Dec  3 12:12:36 2021.
