Pyramid-15                                                              
SP        RMP2-FC                                                     6-311++G(d,p)       
Number of atoms                            I               12
Info1-9                                    I   N=           9
          23          21           0           0           0         110
           1           2           1
Charge                                     I                0
Multiplicity                               I                1
Number of electrons                        I               42
Number of alpha electrons                  I               21
Number of beta electrons                   I               21
Number of basis functions                  I              174
Number of independent functions            I              173
Number of point charges in /Mol/           I                0
Number of translation vectors              I                0
Atomic numbers                             I   N=          12
           6           6           6           6           6           6
           1           1           1           1           1           1
Nuclear charges                            R   N=          12
  6.00000000E+00  6.00000000E+00  6.00000000E+00  6.00000000E+00  6.00000000E+00
  6.00000000E+00  1.00000000E+00  1.00000000E+00  1.00000000E+00  1.00000000E+00
  1.00000000E+00  1.00000000E+00
Current cartesian coordinates              R   N=          36
 -2.28487354E+00  1.31921781E+00 -7.58309303E-02 -2.28487354E+00 -1.31921781E+00
 -7.58309303E-02  0.00000000E+00 -2.63855468E+00 -7.57723488E-02  2.28487354E+00
 -1.31921781E+00 -7.58309303E-02  2.28487354E+00  1.31921781E+00 -7.58309303E-02
  3.23129754E-16  2.63855468E+00 -7.57723488E-02 -4.00014960E+00  2.30933226E+00
  4.54849521E-01 -4.00014960E+00 -2.30933226E+00  4.54849521E-01  0.00000000E+00
 -4.61907081E+00  4.54906213E-01  4.00014960E+00 -2.30933226E+00  4.54849521E-01
  4.00014960E+00  2.30933226E+00  4.54849521E-01  5.65673029E-16  4.61907081E+00
  4.54906213E-01
Force Field                                I                0
Int Atom Types                             I   N=          12
           0           0           0           0           0           0
           0           0           0           0           0           0
MM charges                                 R   N=          12
  0.00000000E+00  0.00000000E+00  0.00000000E+00  0.00000000E+00  0.00000000E+00
  0.00000000E+00  0.00000000E+00  0.00000000E+00  0.00000000E+00  0.00000000E+00
  0.00000000E+00  0.00000000E+00
Integer atomic weights                     I   N=          12
          12          12          12          12          12          12
           1           1           1           1           1           1
Real atomic weights                        R   N=          12
  1.20000000E+01  1.20000000E+01  1.20000000E+01  1.20000000E+01  1.20000000E+01
  1.20000000E+01  1.00782504E+00  1.00782504E+00  1.00782504E+00  1.00782504E+00
  1.00782504E+00  1.00782504E+00
Atom fragment info                         I   N=          12
           0           0           0           0           0           0
           0           0           0           0           0           0
Atom residue num                           I   N=          12
           0           0           0           0           0           0
           0           0           0           0           0           0
Nuclear spins                              I   N=          12
           0           0           0           0           0           0
           1           1           1           1           1           1
Nuclear ZEff                               R   N=          12
 -3.60000000E+00 -3.60000000E+00 -3.60000000E+00 -3.60000000E+00 -3.60000000E+00
 -3.60000000E+00 -1.00000000E+00 -1.00000000E+00 -1.00000000E+00 -1.00000000E+00
 -1.00000000E+00 -1.00000000E+00
Nuclear QMom                               R   N=          12
  0.00000000E+00  0.00000000E+00  0.00000000E+00  0.00000000E+00  0.00000000E+00
  0.00000000E+00  0.00000000E+00  0.00000000E+00  0.00000000E+00  0.00000000E+00
  0.00000000E+00  0.00000000E+00
Nuclear GFac                               R   N=          12
  0.00000000E+00  0.00000000E+00  0.00000000E+00  0.00000000E+00  0.00000000E+00
  0.00000000E+00  2.79284600E+00  2.79284600E+00  2.79284600E+00  2.79284600E+00
  2.79284600E+00  2.79284600E+00
MicOpt                                     I   N=          12
          -1          -1          -1          -1          -1          -1
          -1          -1          -1          -1          -1          -1
Number of contracted shells                I               66
Number of primitive shells                 I              120
Pure/Cartesian d shells                    I                0
Pure/Cartesian f shells                    I                0
Highest angular momentum                   I                2
Largest degree of contraction              I                6
Shell types                                I   N=          66
           0          -1          -1          -1          -1          -2
           0          -1          -1          -1          -1          -2
           0          -1          -1          -1          -1          -2
           0          -1          -1          -1          -1          -2
           0          -1          -1          -1          -1          -2
           0          -1          -1          -1          -1          -2
           0           0           0           0           1           0
           0           0           0           1           0           0
           0           0           1           0           0           0
           0           1           0           0           0           0
           1           0           0           0           0           1
Number of primitives per shell             I   N=          66
           6           3           1           1           1           1
           6           3           1           1           1           1
           6           3           1           1           1           1
           6           3           1           1           1           1
           6           3           1           1           1           1
           6           3           1           1           1           1
           3           1           1           1           1           3
           1           1           1           1           3           1
           1           1           1           3           1           1
           1           1           3           1           1           1
           1           3           1           1           1           1
Shell to atom map                          I   N=          66
           1           1           1           1           1           1
           2           2           2           2           2           2
           3           3           3           3           3           3
           4           4           4           4           4           4
           5           5           5           5           5           5
           6           6           6           6           6           6
           7           7           7           7           7           8
           8           8           8           8           9           9
           9           9           9          10          10          10
          10          10          11          11          11          11
          11          12          12          12          12          12
Primitive exponents                        R   N=         120
  4.56324000E+03  6.82024000E+02  1.54973000E+02  4.44553000E+01  1.30290000E+01
  1.82773000E+00  2.09642000E+01  4.80331000E+00  1.45933000E+00  4.83456000E-01
  1.45585000E-01  4.38000000E-02  6.26000000E-01  4.56324000E+03  6.82024000E+02
  1.54973000E+02  4.44553000E+01  1.30290000E+01  1.82773000E+00  2.09642000E+01
  4.80331000E+00  1.45933000E+00  4.83456000E-01  1.45585000E-01  4.38000000E-02
  6.26000000E-01  4.56324000E+03  6.82024000E+02  1.54973000E+02  4.44553000E+01
  1.30290000E+01  1.82773000E+00  2.09642000E+01  4.80331000E+00  1.45933000E+00
  4.83456000E-01  1.45585000E-01  4.38000000E-02  6.26000000E-01  4.56324000E+03
  6.82024000E+02  1.54973000E+02  4.44553000E+01  1.30290000E+01  1.82773000E+00
  2.09642000E+01  4.80331000E+00  1.45933000E+00  4.83456000E-01  1.45585000E-01
  4.38000000E-02  6.26000000E-01  4.56324000E+03  6.82024000E+02  1.54973000E+02
  4.44553000E+01  1.30290000E+01  1.82773000E+00  2.09642000E+01  4.80331000E+00
  1.45933000E+00  4.83456000E-01  1.45585000E-01  4.38000000E-02  6.26000000E-01
  4.56324000E+03  6.82024000E+02  1.54973000E+02  4.44553000E+01  1.30290000E+01
  1.82773000E+00  2.09642000E+01  4.80331000E+00  1.45933000E+00  4.83456000E-01
  1.45585000E-01  4.38000000E-02  6.26000000E-01  3.38650000E+01  5.09479000E+00
  1.15879000E+00  3.25840000E-01  1.02741000E-01  3.60000000E-02  7.50000000E-01
  3.38650000E+01  5.09479000E+00  1.15879000E+00  3.25840000E-01  1.02741000E-01
  3.60000000E-02  7.50000000E-01  3.38650000E+01  5.09479000E+00  1.15879000E+00
  3.25840000E-01  1.02741000E-01  3.60000000E-02  7.50000000E-01  3.38650000E+01
  5.09479000E+00  1.15879000E+00  3.25840000E-01  1.02741000E-01  3.60000000E-02
  7.50000000E-01  3.38650000E+01  5.09479000E+00  1.15879000E+00  3.25840000E-01
  1.02741000E-01  3.60000000E-02  7.50000000E-01  3.38650000E+01  5.09479000E+00
  1.15879000E+00  3.25840000E-01  1.02741000E-01  3.60000000E-02  7.50000000E-01
Contraction coefficients                   R   N=         120
  1.96665025E-03  1.52306019E-02  7.61269097E-02  2.60801033E-01  6.16462078E-01
  2.21006028E-01  1.14660081E-01  9.19999648E-01 -3.03068213E-03  1.00000000E+00
  1.00000000E+00  1.00000000E+00  1.00000000E+00  1.96665025E-03  1.52306019E-02
  7.61269097E-02  2.60801033E-01  6.16462078E-01  2.21006028E-01  1.14660081E-01
  9.19999648E-01 -3.03068213E-03  1.00000000E+00  1.00000000E+00  1.00000000E+00
  1.00000000E+00  1.96665025E-03  1.52306019E-02  7.61269097E-02  2.60801033E-01
  6.16462078E-01  2.21006028E-01  1.14660081E-01  9.19999648E-01 -3.03068213E-03
  1.00000000E+00  1.00000000E+00  1.00000000E+00  1.00000000E+00  1.96665025E-03
  1.52306019E-02  7.61269097E-02  2.60801033E-01  6.16462078E-01  2.21006028E-01
  1.14660081E-01  9.19999648E-01 -3.03068213E-03  1.00000000E+00  1.00000000E+00
  1.00000000E+00  1.00000000E+00  1.96665025E-03  1.52306019E-02  7.61269097E-02
  2.60801033E-01  6.16462078E-01  2.21006028E-01  1.14660081E-01  9.19999648E-01
 -3.03068213E-03  1.00000000E+00  1.00000000E+00  1.00000000E+00  1.00000000E+00
  1.96665025E-03  1.52306019E-02  7.61269097E-02  2.60801033E-01  6.16462078E-01
  2.21006028E-01  1.14660081E-01  9.19999648E-01 -3.03068213E-03  1.00000000E+00
  1.00000000E+00  1.00000000E+00  1.00000000E+00  2.54938145E-02  1.90373109E-01
  8.52161486E-01  1.00000000E+00  1.00000000E+00  1.00000000E+00  1.00000000E+00
  2.54938145E-02  1.90373109E-01  8.52161486E-01  1.00000000E+00  1.00000000E+00
  1.00000000E+00  1.00000000E+00  2.54938145E-02  1.90373109E-01  8.52161486E-01
  1.00000000E+00  1.00000000E+00  1.00000000E+00  1.00000000E+00  2.54938145E-02
  1.90373109E-01  8.52161486E-01  1.00000000E+00  1.00000000E+00  1.00000000E+00
  1.00000000E+00  2.54938145E-02  1.90373109E-01  8.52161486E-01  1.00000000E+00
  1.00000000E+00  1.00000000E+00  1.00000000E+00  2.54938145E-02  1.90373109E-01
  8.52161486E-01  1.00000000E+00  1.00000000E+00  1.00000000E+00  1.00000000E+00
P(S=P) Contraction coefficients            R   N=         120
  0.00000000E+00  0.00000000E+00  0.00000000E+00  0.00000000E+00  0.00000000E+00
  0.00000000E+00  4.02486927E-02  2.37593957E-01  8.15853851E-01  1.00000000E+00
  1.00000000E+00  1.00000000E+00  0.00000000E+00  0.00000000E+00  0.00000000E+00
  0.00000000E+00  0.00000000E+00  0.00000000E+00  0.00000000E+00  4.02486927E-02
  2.37593957E-01  8.15853851E-01  1.00000000E+00  1.00000000E+00  1.00000000E+00
  0.00000000E+00  0.00000000E+00  0.00000000E+00  0.00000000E+00  0.00000000E+00
  0.00000000E+00  0.00000000E+00  4.02486927E-02  2.37593957E-01  8.15853851E-01
  1.00000000E+00  1.00000000E+00  1.00000000E+00  0.00000000E+00  0.00000000E+00
  0.00000000E+00  0.00000000E+00  0.00000000E+00  0.00000000E+00  0.00000000E+00
  4.02486927E-02  2.37593957E-01  8.15853851E-01  1.00000000E+00  1.00000000E+00
  1.00000000E+00  0.00000000E+00  0.00000000E+00  0.00000000E+00  0.00000000E+00
  0.00000000E+00  0.00000000E+00  0.00000000E+00  4.02486927E-02  2.37593957E-01
  8.15853851E-01  1.00000000E+00  1.00000000E+00  1.00000000E+00  0.00000000E+00
  0.00000000E+00  0.00000000E+00  0.00000000E+00  0.00000000E+00  0.00000000E+00
  0.00000000E+00  4.02486927E-02  2.37593957E-01  8.15853851E-01  1.00000000E+00
  1.00000000E+00  1.00000000E+00  0.00000000E+00  0.00000000E+00  0.00000000E+00
  0.00000000E+00  0.00000000E+00  0.00000000E+00  0.00000000E+00  0.00000000E+00
  0.00000000E+00  0.00000000E+00  0.00000000E+00  0.00000000E+00  0.00000000E+00
  0.00000000E+00  0.00000000E+00  0.00000000E+00  0.00000000E+00  0.00000000E+00
  0.00000000E+00  0.00000000E+00  0.00000000E+00  0.00000000E+00  0.00000000E+00
  0.00000000E+00  0.00000000E+00  0.00000000E+00  0.00000000E+00  0.00000000E+00
  0.00000000E+00  0.00000000E+00  0.00000000E+00  0.00000000E+00  0.00000000E+00
  0.00000000E+00  0.00000000E+00  0.00000000E+00  0.00000000E+00  0.00000000E+00
  0.00000000E+00  0.00000000E+00  0.00000000E+00  0.00000000E+00  0.00000000E+00
Coordinates of each shell                  R   N=         198
 -2.28487354E+00  1.31921781E+00 -7.58309303E-02 -2.28487354E+00  1.31921781E+00
 -7.58309303E-02 -2.28487354E+00  1.31921781E+00 -7.58309303E-02 -2.28487354E+00
  1.31921781E+00 -7.58309303E-02 -2.28487354E+00  1.31921781E+00 -7.58309303E-02
 -2.28487354E+00  1.31921781E+00 -7.58309303E-02 -2.28487354E+00 -1.31921781E+00
 -7.58309303E-02 -2.28487354E+00 -1.31921781E+00 -7.58309303E-02 -2.28487354E+00
 -1.31921781E+00 -7.58309303E-02 -2.28487354E+00 -1.31921781E+00 -7.58309303E-02
 -2.28487354E+00 -1.31921781E+00 -7.58309303E-02 -2.28487354E+00 -1.31921781E+00
 -7.58309303E-02  0.00000000E+00 -2.63855468E+00 -7.57723488E-02  0.00000000E+00
 -2.63855468E+00 -7.57723488E-02  0.00000000E+00 -2.63855468E+00 -7.57723488E-02
  0.00000000E+00 -2.63855468E+00 -7.57723488E-02  0.00000000E+00 -2.63855468E+00
 -7.57723488E-02  0.00000000E+00 -2.63855468E+00 -7.57723488E-02  2.28487354E+00
 -1.31921781E+00 -7.58309303E-02  2.28487354E+00 -1.31921781E+00 -7.58309303E-02
  2.28487354E+00 -1.31921781E+00 -7.58309303E-02  2.28487354E+00 -1.31921781E+00
 -7.58309303E-02  2.28487354E+00 -1.31921781E+00 -7.58309303E-02  2.28487354E+00
 -1.31921781E+00 -7.58309303E-02  2.28487354E+00  1.31921781E+00 -7.58309303E-02
  2.28487354E+00  1.31921781E+00 -7.58309303E-02  2.28487354E+00  1.31921781E+00
 -7.58309303E-02  2.28487354E+00  1.31921781E+00 -7.58309303E-02  2.28487354E+00
  1.31921781E+00 -7.58309303E-02  2.28487354E+00  1.31921781E+00 -7.58309303E-02
  3.23129754E-16  2.63855468E+00 -7.57723488E-02  3.23129754E-16  2.63855468E+00
 -7.57723488E-02  3.23129754E-16  2.63855468E+00 -7.57723488E-02  3.23129754E-16
  2.63855468E+00 -7.57723488E-02  3.23129754E-16  2.63855468E+00 -7.57723488E-02
  3.23129754E-16  2.63855468E+00 -7.57723488E-02 -4.00014960E+00  2.30933226E+00
  4.54849521E-01 -4.00014960E+00  2.30933226E+00  4.54849521E-01 -4.00014960E+00
  2.30933226E+00  4.54849521E-01 -4.00014960E+00  2.30933226E+00  4.54849521E-01
 -4.00014960E+00  2.30933226E+00  4.54849521E-01 -4.00014960E+00 -2.30933226E+00
  4.54849521E-01 -4.00014960E+00 -2.30933226E+00  4.54849521E-01 -4.00014960E+00
 -2.30933226E+00  4.54849521E-01 -4.00014960E+00 -2.30933226E+00  4.54849521E-01
 -4.00014960E+00 -2.30933226E+00  4.54849521E-01  0.00000000E+00 -4.61907081E+00
  4.54906213E-01  0.00000000E+00 -4.61907081E+00  4.54906213E-01  0.00000000E+00
 -4.61907081E+00  4.54906213E-01  0.00000000E+00 -4.61907081E+00  4.54906213E-01
  0.00000000E+00 -4.61907081E+00  4.54906213E-01  4.00014960E+00 -2.30933226E+00
  4.54849521E-01  4.00014960E+00 -2.30933226E+00  4.54849521E-01  4.00014960E+00
 -2.30933226E+00  4.54849521E-01  4.00014960E+00 -2.30933226E+00  4.54849521E-01
  4.00014960E+00 -2.30933226E+00  4.54849521E-01  4.00014960E+00  2.30933226E+00
  4.54849521E-01  4.00014960E+00  2.30933226E+00  4.54849521E-01  4.00014960E+00
  2.30933226E+00  4.54849521E-01  4.00014960E+00  2.30933226E+00  4.54849521E-01
  4.00014960E+00  2.30933226E+00  4.54849521E-01  5.65673029E-16  4.61907081E+00
  4.54906213E-01  5.65673029E-16  4.61907081E+00  4.54906213E-01  5.65673029E-16
  4.61907081E+00  4.54906213E-01  5.65673029E-16  4.61907081E+00  4.54906213E-01
  5.65673029E-16  4.61907081E+00  4.54906213E-01
Constraint Structure                       R   N=          36
 -2.28487354E+00  1.31921781E+00 -7.58309303E-02 -2.28487354E+00 -1.31921781E+00
 -7.58309303E-02  0.00000000E+00 -2.63855468E+00 -7.57723488E-02  2.28487354E+00
 -1.31921781E+00 -7.58309303E-02  2.28487354E+00  1.31921781E+00 -7.58309303E-02
  3.23129754E-16  2.63855468E+00 -7.57723488E-02 -4.00014960E+00  2.30933226E+00
  4.54849521E-01 -4.00014960E+00 -2.30933226E+00  4.54849521E-01  0.00000000E+00
 -4.61907081E+00  4.54906213E-01  4.00014960E+00 -2.30933226E+00  4.54849521E-01
  4.00014960E+00  2.30933226E+00  4.54849521E-01  5.65673029E-16  4.61907081E+00
  4.54906213E-01
Num ILSW                                   I              100
ILSW                                       I   N=         100
           0           0           0           0           2           0
           0           0           0           0           0          -1
           0           0           0           0           0           0
           0           0           0           0           0           0
           1           0           0           0           0           0
           0           0      100000           0          -1           0
           0           0           0           0           0           0
           0           0           0           1           0           0
           0           0           1           0           0           0
           0           0           4          40           0           0
           0           0           0           0           0           0
           0           0           0           0           0           0
           0           0           0           0           0           0
           0           0           0           0           0           0
           0           0           0           0           0           0
           0           0           0           0           0           0
           0           0           0           0
Num RLSW                                   I               40
RLSW                                       R   N=          40
  1.00000000E+00  1.00000000E+00  1.00000000E+00  1.00000000E+00  1.00000000E+00
  0.00000000E+00  0.00000000E+00  1.00000000E+00  0.00000000E+00  0.00000000E+00
  0.00000000E+00  0.00000000E+00  1.00000000E+00  0.00000000E+00  0.00000000E+00
  0.00000000E+00  0.00000000E+00  1.00000000E+00  0.00000000E+00  0.00000000E+00
  0.00000000E+00  0.00000000E+00  1.00000000E+00  0.00000000E+00  0.00000000E+00
  0.00000000E+00  0.00000000E+00  1.00000000E+00  0.00000000E+00  0.00000000E+00
  0.00000000E+00  0.00000000E+00  0.00000000E+00  0.00000000E+00  0.00000000E+00
  0.00000000E+00  0.00000000E+00  0.00000000E+00  1.00000000E+00  1.00000000E+00
MxBond                                     I                3
NBond                                      I   N=          12
           3           3           3           3           3           3
           1           1           1           1           1           1
IBond                                      I   N=          36
           2           6           7           1           3           8
           2           4           9           3           5          10
           4           6          11           1           5          12
           1           0           0           2           0           0
           3           0           0           4           0           0
           5           0           0           6           0           0
RBond                                      R   N=          36
  1.50000000E+00  1.50000000E+00  1.00000000E+00  1.50000000E+00  1.50000000E+00
  1.00000000E+00  1.50000000E+00  1.50000000E+00  1.00000000E+00  1.50000000E+00
  1.50000000E+00  1.00000000E+00  1.50000000E+00  1.50000000E+00  1.00000000E+00
  1.50000000E+00  1.50000000E+00  1.00000000E+00  1.00000000E+00  0.00000000E+00
  0.00000000E+00  1.00000000E+00  0.00000000E+00  0.00000000E+00  1.00000000E+00
  0.00000000E+00  0.00000000E+00  1.00000000E+00  0.00000000E+00  0.00000000E+00
  1.00000000E+00  0.00000000E+00  0.00000000E+00  1.00000000E+00  0.00000000E+00
  0.00000000E+00
Virial Ratio                               R      2.001302011160396E+00
SCF Energy                                 R     -2.307390146043534E+02
MP2 Energy                                 R     -2.315703664854915E+02
Total Energy                               R     -2.315703664854915E+02
Post-SCF wavefunction norm                 R      1.144746801769887E+00
RMS Density                                R      5.382256630246153E-09
External E-field                           R   N=          35
  0.00000000E+00  0.00000000E+00  0.00000000E+00  0.00000000E+00  0.00000000E+00
  0.00000000E+00  0.00000000E+00  0.00000000E+00  0.00000000E+00  0.00000000E+00
  0.00000000E+00  0.00000000E+00  0.00000000E+00  0.00000000E+00  0.00000000E+00
  0.00000000E+00  0.00000000E+00  0.00000000E+00  0.00000000E+00  0.00000000E+00
  0.00000000E+00  0.00000000E+00  0.00000000E+00  0.00000000E+00  0.00000000E+00
  0.00000000E+00  0.00000000E+00  0.00000000E+00  0.00000000E+00  0.00000000E+00
  0.00000000E+00  0.00000000E+00  0.00000000E+00  0.00000000E+00  0.00000000E+00
IOpCl                                      I                0
IROHF                                      I                0
Alpha Orbital Energies                     R   N=         173
 -1.12407506E+01 -1.12401868E+01 -1.12401837E+01 -1.12389649E+01 -1.12389619E+01
 -1.12383654E+01 -1.15317446E+00 -1.01777271E+00 -1.01776064E+00 -8.25622842E-01
 -8.25607071E-01 -7.10520651E-01 -6.41736419E-01 -6.21059089E-01 -5.89478578E-01
 -5.89448799E-01 -5.02330157E-01 -4.94698200E-01 -4.94679782E-01 -3.37006369E-01
 -3.36997042E-01  4.25987041E-02  5.15216734E-02  5.15229716E-02  6.89731777E-02
  6.89747910E-02  9.69937549E-02  1.04650076E-01  1.04655761E-01  1.25014289E-01
  1.47632615E-01  1.47633862E-01  1.61488182E-01  1.63553761E-01  1.82772071E-01
  1.82775124E-01  1.93556263E-01  1.93846188E-01  1.93850133E-01  2.05823747E-01
  2.12614345E-01  2.12616018E-01  2.16482353E-01  2.16485383E-01  2.27542371E-01
  2.27547146E-01  2.45818211E-01  2.51708921E-01  2.52398297E-01  2.85234869E-01
  2.88674571E-01  2.88676900E-01  3.03891216E-01  3.42233663E-01  3.80569826E-01
  3.80583391E-01  4.28800908E-01  4.28807525E-01  4.44194007E-01  4.84988711E-01
  4.85000931E-01  5.05226570E-01  5.05231208E-01  5.95820613E-01  6.04305109E-01
  7.16436046E-01  7.24845170E-01  7.30675314E-01  7.30679501E-01  7.50913592E-01
  7.50917860E-01  7.54218987E-01  7.62388887E-01  7.62395126E-01  7.94017163E-01
  8.09594259E-01  8.09596585E-01  8.51537947E-01  9.03965131E-01  9.03966428E-01
  9.26394103E-01  9.26534891E-01  9.36198539E-01  9.38362443E-01  9.38393591E-01
  9.43682704E-01  9.43688174E-01  9.65353269E-01  1.09439340E+00  1.09439365E+00
  1.10027288E+00  1.12853105E+00  1.13704143E+00  1.13704361E+00  1.19753673E+00
  1.23601583E+00  1.32272110E+00  1.41450047E+00  1.41452938E+00  1.51002645E+00
  1.51004894E+00  1.55918760E+00  1.72112369E+00  1.77039485E+00  1.77048145E+00
  1.77940293E+00  1.82018046E+00  1.82018592E+00  1.89406527E+00  1.89412803E+00
  1.93442252E+00  1.96516848E+00  1.96521116E+00  1.99589426E+00  2.04515897E+00
  2.04519569E+00  2.08127944E+00  2.08130125E+00  2.12877370E+00  2.13579160E+00
  2.19927245E+00  2.19929550E+00  2.30012463E+00  2.31448191E+00  2.31450556E+00
  2.32249728E+00  2.32250417E+00  2.40499125E+00  2.40501770E+00  2.60672315E+00
  2.69783895E+00  2.69789207E+00  2.70794321E+00  2.73312639E+00  2.79788247E+00
  2.79794078E+00  2.88979515E+00  2.91305795E+00  2.91310447E+00  2.98549986E+00
  2.98902552E+00  2.98904992E+00  2.99024530E+00  2.99024899E+00  3.05177075E+00
  3.06235036E+00  3.21362656E+00  3.21364520E+00  3.25161291E+00  3.28629714E+00
  3.28637504E+00  3.31547341E+00  3.31547436E+00  3.51824055E+00  3.53793049E+00
  3.76526828E+00  3.76528968E+00  3.88792887E+00  3.89497477E+00  3.89500307E+00
  4.00214049E+00  4.39904952E+00  4.39907448E+00  4.52138849E+00  4.52911809E+00
  4.52915898E+00  5.23724878E+00  2.47283438E+01  2.51252452E+01  2.51252564E+01
  2.52457363E+01  2.52457421E+01  2.53323398E+01
Alpha MO coefficients                      R   N=       30102
  2.29713786E-01  1.90200037E-01  1.68805020E-05 -9.51828941E-06 -6.81494548E-05
  2.00806867E-03  1.69763865E-04 -9.78654661E-05  4.94666269E-05 -3.46440863E-04
 -2.14952977E-05  1.23816828E-05 -2.36105667E-05  1.02241315E-04  6.97282959E-05
 -4.03306196E-05  2.03253727E-06 -1.14225491E-04 -6.76765526E-06  3.88808898E-06
 -3.23274014E-05  5.61138274E-05  2.29713786E-01  1.90200037E-01  1.68805020E-05
  9.51828941E-06 -6.81494548E-05  2.00806867E-03  1.69763865E-04  9.78654661E-05
  4.94666269E-05 -3.46440863E-04 -2.14952977E-05 -1.23816828E-05 -2.36105667E-05
  1.02241315E-04  6.97282959E-05  4.03306196E-05  2.03253727E-06 -1.14225491E-04
 -6.76765526E-06 -3.88808898E-06 -3.23274014E-05 -5.61138274E-05  2.30304114E-01
  1.90689027E-01  0.00000000E+00  1.91194948E-05 -6.83416584E-05  2.01221823E-03
  0.00000000E+00  1.96130161E-04  4.96604209E-05 -3.47109197E-04  0.00000000E+00
 -2.49965741E-05 -2.37363738E-05  1.09053818E-04  0.00000000E+00  8.36976033E-05
  1.60440034E-06 -1.14720635E-04  0.00000000E+00 -7.92008573E-06  6.48080083E-05
  0.00000000E+00  2.29713786E-01  1.90200037E-01 -1.68805020E-05  9.51828941E-06
 -6.81494548E-05  2.00806867E-03 -1.69763865E-04  9.78654661E-05  4.94666269E-05
 -3.46440863E-04  2.14952977E-05 -1.23816828E-05 -2.36105667E-05  1.02241315E-04
 -6.97282959E-05  4.03306196E-05  2.03253727E-06 -1.14225491E-04  6.76765526E-06
 -3.88808898E-06 -3.23274014E-05  5.61138274E-05  2.29713786E-01  1.90200037E-01
 -1.68805020E-05 -9.51828941E-06 -6.81494548E-05  2.00806867E-03 -1.69763865E-04
 -9.78654661E-05  4.94666269E-05 -3.46440863E-04  2.14952977E-05  1.23816828E-05
 -2.36105667E-05  1.02241315E-04 -6.97282959E-05 -4.03306196E-05  2.03253727E-06
 -1.14225491E-04  6.76765526E-06  3.88808898E-06 -3.23274014E-05 -5.61138274E-05
  2.30304114E-01  1.90689027E-01  0.00000000E+00 -1.91194948E-05 -6.83416584E-05
  2.01221823E-03  0.00000000E+00 -1.96130161E-04  4.96604209E-05 -3.47109197E-04
  0.00000000E+00  2.49965741E-05 -2.37363738E-05  1.09053818E-04  0.00000000E+00
 -8.36976033E-05  1.60440034E-06 -1.14720635E-04  0.00000000E+00  7.92008573E-06
  6.48080083E-05  0.00000000E+00  1.73477322E-04  3.96591034E-06  1.26566174E-04
 -5.41208490E-05  2.42193628E-05 -1.39505165E-05 -1.25269292E-05  1.73477322E-04
  3.96591034E-06  1.26566174E-04 -5.41208490E-05  2.42193628E-05  1.39505165E-05
 -1.25269292E-05  1.73907139E-04  3.74523327E-06  1.27231706E-04 -5.28055480E-05
  0.00000000E+00  2.79419628E-05 -1.25184037E-05  1.73477322E-04  3.96591034E-06
  1.26566174E-04 -5.41208490E-05 -2.42193628E-05  1.39505165E-05 -1.25269292E-05
  1.73477322E-04  3.96591034E-06  1.26566174E-04 -5.41208490E-05 -2.42193628E-05
 -1.39505165E-05 -1.25269292E-05  1.73907139E-04  3.74523327E-06  1.27231706E-04
 -5.28055480E-05  0.00000000E+00 -2.79419628E-05 -1.25184037E-05 -1.62322412E-01
 -1.34420461E-01 -7.55798844E-05 -1.43245637E-04  5.15247240E-05 -1.32391054E-03
 -1.33198591E-04 -5.77471131E-05 -5.32259279E-05  1.17327022E-04  1.22352802E-04
  1.67146708E-04  2.21160664E-05  2.52326647E-04 -6.43728025E-04 -3.25969424E-04
  3.94475073E-05  9.30552319E-05  2.59404158E-05  1.65270199E-05 -5.15358458E-05
 -8.24202346E-05  1.62322412E-01  1.34420461E-01  7.55798844E-05 -1.43245637E-04
 -5.15247240E-05  1.32391054E-03  1.33198591E-04 -5.77471131E-05  5.32259279E-05
 -1.17327022E-04 -1.22352802E-04  1.67146708E-04 -2.21160664E-05 -2.52326647E-04
  6.43728025E-04 -3.25969424E-04 -3.94475073E-05 -9.30552319E-05 -2.59404158E-05
  1.65270199E-05  5.15358458E-05 -8.24202346E-05  3.25457504E-01  2.69514177E-01
  0.00000000E+00 -1.29486345E-05 -1.03291340E-04  2.65307006E-03  0.00000000E+00
  1.73463684E-04  1.06702138E-04 -2.38164488E-04  0.00000000E+00 -4.93281042E-05
 -4.38108119E-05 -8.01275661E-04  0.00000000E+00  7.18593439E-04 -7.21967762E-05
 -1.86933741E-04  0.00000000E+00 -2.86564032E-05  9.09404343E-05  0.00000000E+00
  1.62322412E-01  1.34420461E-01 -7.55798844E-05 -1.43245637E-04 -5.15247240E-05
  1.32391054E-03 -1.33198591E-04 -5.77471131E-05  5.32259279E-05 -1.17327022E-04
  1.22352802E-04  1.67146708E-04 -2.21160664E-05 -2.52326647E-04 -6.43728025E-04
 -3.25969424E-04 -3.94475073E-05 -9.30552319E-05  2.59404158E-05  1.65270199E-05
  5.15358458E-05  8.24202346E-05 -1.62322412E-01 -1.34420461E-01  7.55798844E-05
 -1.43245637E-04  5.15247240E-05 -1.32391054E-03  1.33198591E-04 -5.77471131E-05
 -5.32259279E-05  1.17327022E-04 -1.22352802E-04  1.67146708E-04  2.21160664E-05
  2.52326647E-04  6.43728025E-04 -3.25969424E-04  3.94475073E-05  9.30552319E-05
 -2.59404158E-05  1.65270199E-05 -5.15358458E-05  8.24202346E-05 -3.25457504E-01
 -2.69514177E-01  0.00000000E+00 -1.29486345E-05  1.03291340E-04 -2.65307006E-03
  0.00000000E+00  1.73463684E-04 -1.06702138E-04  2.38164488E-04  0.00000000E+00