
                                 *****************
                                 * O   R   C   A *
                                 *****************

                                            #,                                       
                                            ###                                      
                                            ####                                     
                                            #####                                    
                                            ######                                   
                                           ########,                                 
                                     ,,################,,,,,                         
                               ,,#################################,,                 
                          ,,##########################################,,             
                       ,#########################################, ''#####,          
                    ,#############################################,,   '####,        
                  ,##################################################,,,,####,       
                ,###########''''           ''''###############################       
              ,#####''   ,,,,##########,,,,          '''####'''          '####       
            ,##' ,,,,###########################,,,                        '##       
           ' ,,###''''                  '''############,,,                           
         ,,##''                                '''############,,,,        ,,,,,,###''
      ,#''                                            '''#######################'''  
     '                                                          ''''####''''         
             ,#######,   #######,   ,#######,      ##                                
            ,#'     '#,  ##    ##  ,#'     '#,    #''#        ,####,   ,####,        
            ##       ##  ##   ,#'  ##            #'  '#       #'       #'  '#        
            ##       ##  #######   ##           ,######,      #####,   #    #        
            '#,     ,#'  ##    ##  '#,     ,#' ,#      #,     #,   #   #,  ,#        
             '#######'   ##     ##  '#######'  #'      '#     '####' # '####'        



                #########################################################
                #                        -***-                          #
                #          Department of theory and spectroscopy        #
                #                                                       #
                #                      Frank Neese                      #
                #                                                       #
                #     Directorship, Architecture, Infrastructure        #
                #                    SHARK, DRIVERS                     #
                #        Core code/Algorithms in most modules           #
                #                                                       #
                #        Max Planck Institute fuer Kohlenforschung      #
                #                Kaiser Wilhelm Platz 1                 #
                #                 D-45470 Muelheim/Ruhr                 #
                #                      Germany                          #
                #                                                       #
                #                  All rights reserved                  #
                #                        -***-                          #
                #########################################################


                         Program Version 6.0.1  -  RELEASE   -


 With contributions from (in alphabetic order):
[Max-Planck-Institut fuer Kohlenforschung]                               
  Daniel Aravena         : Magnetic Suceptibility                        
  Michael Atanasov       : Ab Initio Ligand Field Theory (pilot matlab implementation)
  Alexander A. Auer      : GIAO ZORA, VPT2 properties, NMR spectrum      
  Ute Becker             : All parallelization in ORCA, NUMFREQ, NUMCALC 
  Giovanni Bistoni       : ED, misc. LED, open-shell LED, HFLD           
  Martin Brehm           : Molecular dynamics                            
  Dmytro Bykov           : pre 5.0 version of the SCF Hessian            
  Marcos Casanova-Páez   : Triplet and SCS-CIS(D). UHF-(DLPNO)-IP/EA/STEOM-CCSD. UHF-CVS-IP/STEOM-CCSD   
  Vijay G. Chilkuri      : MRCI spin determinant printing, contributions to CSF-ICE 
  Pauline Colinet        : FMM embedding                                 
  Dipayan Datta          : RHF DLPNO-CCSD density                        
  Achintya Kumar Dutta   : EOM-CC, STEOM-CC                              
  Nicolas Foglia         : Exact transition moments, OPA infrastructure, MCD improvements    
  Dmitry Ganyushin       : Spin-Orbit,Spin-Spin,Magnetic field MRCI      
  Miquel Garcia-Rates    : C-PCM and meta-GGA Hessian, CCSD/C-PCM, Gaussian charge scheme 
  Tiago L. C. Gouveia    : GS-ROHF, GS-ROCIS                             
  Yang Guo               : DLPNO-NEVPT2, F12-NEVPT2, CIM, IAO-localization        
  Andreas Hansen         : Spin unrestricted coupled pair/coupled cluster methods 
  Ingolf Harden          : AUTO-CI MPn and infrastructure                
  Benjamin Helmich-Paris : MC-RPA, TRAH-(SCF,CASSCF), AVAS, COSX integrals, SCF dyn. polar. 
  Lee Huntington         : MR-EOM, pCC                                   
  Robert Izsak           : Overlap fitted RIJCOSX, COSX-SCS-MP3, EOM     
  Riya Kayal             : Wick's Theorem for AUTO-CI, AUTO-CI UHF-CCSDT 
  Emily Kempfer          : AUTO-CI, RHF CISDT and CCSDT                  
  Christian Kollmar      : KDIIS, OOCD, Brueckner-CCSD(T), CCSD density, CASPT2, CASPT2-K, improved NEVPT2 
  Axel Koslowski         : Symmetry handling                             
  Simone Kossmann        : meta-GGA functionals, TD-DFT gradient, OOMP2, (MP2 Hessian; deprecated post 5.0) 
  Lucas Lang             : DCDCAS                                        
  Marvin Lechner         : AUTO-CI (C++ implementation), FIC-MRCC        
  Spencer Leger          : CASSCF response                               
  Dagmar Lenk            : GEPOL surface, SMD, ORCA-2-JSON               
  Dimitrios Liakos       : Extrapolation schemes; Compound Job, initial MDCI parallelization 
  Dimitrios Manganas     : Further ROCIS development; embedding schemes. LFT, Crystal Embedding 
  Dimitrios Pantazis     : SARC Basis sets                               
  Anastasios Papadopoulos: AUTO-CI, single reference methods and gradients 
  Taras Petrenko         : pre 6.0 DFT Hessian and TD-DFT gradient, (ASA, deprecated), ECA, 1-Electron XAS/XES, NRVS 
  Peter Pinski           : DLPNO-MP2, DLPNO-MP2 Gradient                 
  Christoph Reimann      : Effective Core Potentials                     
  Marius Retegan         : Local ZFS, SOC                                
  Christoph Riplinger    : Optimizer, TS searches, QM/MM, DLPNO-CCSD(T), (RO)-DLPNO pert. Triples 
  Michael Roemelt        : Original ROCIS implementation                 
  Masaaki Saitow         : Open-shell DLPNO-CCSD energy and density      
  Barbara Sandhoefer     : DKH picture change effects                    
  Kantharuban Sivalingam : CASSCF convergence/infrastructure, NEVPT2 and variants, FIC-MRCI 
  Bernardo de Souza      : ESD, SOC TD-DFT                               
  Georgi L. Stoychev     : AutoAux, RI-MP2 NMR, DLPNO-MP2 response, X2C  
  Van Anh Tran           : RI-MP2 g-tensors                              
  Willem Van den Heuvel  : Paramagnetic NMR                              
  Zikuan Wang            : NOTCH, Electric field optimization            
  Frank Wennmohs         : Technical directorship and infrastructure     
  Hang Xu                : AUTO-CI-Response properties                   
                                                                         
[FACCTs GmbH]                                                            
  Markus Bursch, Miquel Garcia-Rates, Christoph Riplinger, Bernardo de Souza, Georgi L. Stoychev 
                                                                 
  APM, Basis sets (HGBS, AHGBS, def-TZVP (Ac-Lr), def2-XVPD (La-Lu)), CI-OPT, improved COSX, DLPNO-Multilevel,           
  DOCKER, DRACO, updates on ESD, GOAT, IRC, LR-CPCM, MBIS, meta-GGA TD-DFT gradient, ML-optimized integration grids, 
  MM, NACMEs, nearIR, NEB, NEB-TS, NL-DFT gradient (VV10), 2- and 3-layer-ONIOM, interface openCOSMO-RS, QMMM,   
  Crystal-QMMM, SF, symmetry and pop. for TD-DFT, r2SCAN hybrids, SOLVATOR                                   
                                                                         
[Other institutions]                                                     
  V. Asgeirsson          : NEB                                           
  Christoph Bannwarth    : sTDA-DFT, sTD-DFT, PBEh-3c, B97-3c, D3        
  Sebastian Ehlert       : rSCAN, r2SCAN, r2SCAN-3c, D4, dhf basis sets  
  Marvin Friede          : D4 for Fr, Ra, Ac-Lr                          
  Lars Goerigk           : TD-DFT with DH, B97 family of functionals     
  Stefan Grimme          : VdW corrections, initial TS optimization, DFT functionals, gCP, sTDA/sTD-DF 
  Waldemar Hujo          : DFT-NL                                        
  H. Jonsson             : NEB                                           
  Holger Kruse           : gCP                                           
  Marcel Mueller         : wB97X-3c, vDZP basis set                      
  Hagen Neugebauer       : wr2SCAN                                       
  Tobias Risthaus        : range-separated hybrid DFT                    
  Lukas Wittmann         : regularized MP2, r2SCAN double-hybrids, wr2SCAN        
                                                                         
We gratefully acknowledge several colleagues who have allowed us to      
interface, adapt or use parts of their codes:                            
  Ed Valeev, F. Pavosevic, A. Kumar             : LibInt (2-el integral package), F12 methods 
  Garnet Chan, S. Sharma, J. Yang, R. Olivares  : DMRG                   
  Ulf Ekstrom                                   : XCFun DFT Library      
  Mihaly Kallay                                 : mrcc  (arbitrary order and MRCC methods)
  Frank Weinhold                                : gennbo (NPA and NBO analysis)           
  Simon Mueller                                 : openCOSMO-RS                            
  Christopher J. Cramer and Donald G. Truhlar   : smd solvation model                     
  S Lehtola, MJT Oliveira, MAL Marques          : LibXC Library                           
  Liviu Ungur et al                             : ANISO software                          


 Your calculation uses the libint2 library for the computation of 2-el integrals
 For citations please refer to: http://libint.valeyev.net

 Your ORCA version has been built with support for libXC version: 6.2.2
 For citations please refer to: https://libxc.gitlab.io

 This ORCA versions uses:
   CBLAS   interface :  Fast vector & matrix operations
   LAPACKE interface :  Fast linear algebra routines
   SCALAPACK package :  Parallel linear algebra routines
   Shared memory     :  Shared parallel matrices
   BLAS/LAPACK       :  OpenBLAS 0.3.27  USE64BITINT DYNAMIC_ARCH NO_AFFINITY Haswell SINGLE_THREADED
        Core in use  :  Haswell
   Copyright (c) 2011-2014, The OpenBLAS Project


Your calculation utilizes the semiempirical GFN2-xTB method
Please cite in your paper:
C. Bannwarth, Ehlert S., S. Grimme,  J. Chem. Theory Comput., 15, (2019), 1652.
   

================================================================================

================================================================================
                                        WARNINGS
                       Please study these warnings very carefully!
================================================================================


WARNING: Geometry Optimization
  ===> : Switching off AutoStart
         For restart on a previous wavefunction, please use MOREAD

WARNING: Found dipole moment calculation with XTB calculation
  ===> : Switching off dipole moment calculation


================================================================================
                                       INPUT FILE
================================================================================
NAME = goat.inp
|  1> ! GOAT XTB
|  2> %pal
|  3>    nprocs 4
|  4> end
|  5> 
|  6> * xyz 0 1
|  7>    C     -1.212626    0.700110    0.000000
|  8>    C      0.000000    1.400215    0.000000
|  9>    C      1.212626    0.700108    0.000000
| 10>    C      1.212626   -0.700110    0.000000
| 11>    C     -0.000000   -1.400215    0.000000
| 12>    C     -1.212626   -0.700108    0.000000
| 13>    H     -2.153778    1.243486    0.000000
| 14>    H      0.000000    2.486965    0.000000
| 15>    H      2.153777    1.243486    0.000000
| 16>    H      2.153778   -1.243486    0.000000
| 17>    H     -0.000000   -2.486965    0.000000
| 18>    H     -2.153777   -1.243486    0.000000
| 19> *
| 20> 
| 21> 
| 22> 
| 23>                          ****END OF INPUT****
================================================================================

                       *****************************
                       * Geometry Optimization Run *
                       *****************************


                       *********************************
                       *              GOAT             *
                       * Global Optimization Algorithm *
                       *********************************

Geometry optimization settings:
Update method            Update   .... BFGS
Choice of coordinates    CoordSys .... (2022) Redundant Internals
Initial Hessian          InHess   .... Almloef's Model
Max. no of cycles        MaxIter  .... 50

Convergence Tolerances:
Energy Change            TolE     ....  5.0000e-06 Eh
Max. Gradient            TolMAXG  ....  3.0000e-04 Eh/bohr
RMS Gradient             TolRMSG  ....  1.0000e-04 Eh/bohr
Max. Displacement        TolMAXD  ....  4.0000e-03 bohr
RMS Displacement         TolRMSD  ....  2.0000e-03 bohr
Strict Convergence                .... True

------------------------------------------------------------------------------
                        ORCA OPTIMIZATION COORDINATE SETUP
------------------------------------------------------------------------------

The optimization will be done in redundant internal coordinates (2022)
Making redundant internal coordinates   ...  (2022 redundants) done
Evaluating the initial hessian          ...  (Almloef) done
Evaluating the coordinates              ...  done
Calculating the B-matrix                .... done
Calculating the G-matrix                .... done
Diagonalizing the G-matrix              .... done
The first mode is                       ....   24
The number of degrees of freedom        ....   30

    -----------------------------------------------------------------
                    Redundant Internal Coordinates


    -----------------------------------------------------------------
         Definition                    Initial Value    Approx d2E/dq
    -----------------------------------------------------------------
      1. B(C   1,C   0)                  1.4002         0.601779   
      2. B(C   2,C   1)                  1.4002         0.601777   
      3. B(C   3,C   2)                  1.4002         0.601778   
      4. B(C   4,C   3)                  1.4002         0.601779   
      5. B(C   5,C   4)                  1.4002         0.601777   
      6. B(C   5,C   0)                  1.4002         0.601778   
      7. B(H   6,C   0)                  1.0867         0.364426   
      8. B(H   7,C   1)                  1.0867         0.364425   
      9. B(H   8,C   2)                  1.0867         0.364426   
     10. B(H   9,C   3)                  1.0867         0.364426   
     11. B(H  10,C   4)                  1.0867         0.364425   
     12. B(H  11,C   5)                  1.0867         0.364426   
     13. A(C   1,C   0,C   5)          119.9998         0.429438   
     14. A(C   1,C   0,H   6)          120.0001         0.351843   
     15. A(C   5,C   0,H   6)          120.0001         0.351842   
     16. A(C   2,C   1,H   7)          119.9999         0.351842   
     17. A(C   0,C   1,C   2)          120.0003         0.429438   
     18. A(C   0,C   1,H   7)          119.9998         0.351843   
     19. A(C   3,C   2,H   8)          120.0002         0.351842   
     20. A(C   1,C   2,H   8)          119.9999         0.351842   
     21. A(C   1,C   2,C   3)          119.9999         0.429438   
     22. A(C   4,C   3,H   9)          120.0001         0.351843   
     23. A(C   2,C   3,H   9)          120.0001         0.351842   
     24. A(C   2,C   3,C   4)          119.9998         0.429438   
     25. A(C   3,C   4,H  10)          119.9998         0.351843   
     26. A(C   3,C   4,C   5)          120.0003         0.429438   
     27. A(C   5,C   4,H  10)          119.9999         0.351842   
     28. A(C   0,C   5,C   4)          119.9999         0.429438   
     29. A(C   4,C   5,H  11)          119.9999         0.351842   
     30. A(C   0,C   5,H  11)          120.0002         0.351842   
     31. D(H   7,C   1,C   0,C   5)    180.0000         0.024973   
     32. D(H   7,C   1,C   0,H   6)      0.0000         0.024973   
     33. D(C   2,C   1,C   0,H   6)    180.0000         0.024973   
     34. D(C   2,C   1,C   0,C   5)      0.0000         0.024973   
     35. D(H   8,C   2,C   1,C   0)    180.0000         0.024973   
     36. D(C   3,C   2,C   1,C   0)      0.0000         0.024973   
     37. D(C   3,C   2,C   1,H   7)    180.0000         0.024973   
     38. D(H   8,C   2,C   1,H   7)      0.0000         0.024973   
     39. D(H   9,C   3,C   2,H   8)      0.0000         0.024973   
     40. D(H   9,C   3,C   2,C   1)    180.0000         0.024973   
     41. D(C   4,C   3,C   2,H   8)    180.0000         0.024973   
     42. D(C   4,C   3,C   2,C   1)      0.0000         0.024973   
     43. D(H  10,C   4,C   3,C   2)    180.0000         0.024973   
     44. D(C   5,C   4,C   3,H   9)    180.0000         0.024973   
     45. D(C   5,C   4,C   3,C   2)      0.0000         0.024973   
     46. D(H  10,C   4,C   3,H   9)      0.0000         0.024973   
     47. D(H  11,C   5,C   4,H  10)      0.0000         0.024973   
     48. D(C   0,C   5,C   4,H  10)    180.0000         0.024973   
     49. D(C   0,C   5,C   4,C   3)      0.0000         0.024973   
     50. D(H  11,C   5,C   0,H   6)      0.0000         0.024973   
     51. D(H  11,C   5,C   0,C   1)    180.0000         0.024973   
     52. D(H  11,C   5,C   4,C   3)    180.0000         0.024973   
     53. D(C   4,C   5,C   0,H   6)    180.0000         0.024973   
     54. D(C   4,C   5,C   0,C   1)      0.0000         0.024973   
    -----------------------------------------------------------------

Number of atoms                         .... 12
Number of degrees of freedom            .... 54


         *************************************************************
         *                GEOMETRY OPTIMIZATION CYCLE   1            *
         *************************************************************
---------------------------------
CARTESIAN COORDINATES (ANGSTROEM)
---------------------------------
  C    -1.212626    0.700110    0.000000
  C     0.000000    1.400215    0.000000
  C     1.212626    0.700108    0.000000
  C     1.212626   -0.700110    0.000000
  C    -0.000000   -1.400215    0.000000
  C    -1.212626   -0.700108    0.000000
  H    -2.153778    1.243486    0.000000
  H     0.000000    2.486965    0.000000
  H     2.153777    1.243486    0.000000
  H     2.153778   -1.243486    0.000000
  H    -0.000000   -2.486965    0.000000
  H    -2.153777   -1.243486    0.000000

----------------------------
CARTESIAN COORDINATES (A.U.)
----------------------------
  NO LB    ZA    FRAG    MASS        X           Y           Z
   0 C   6.0000    1    12.011   -2.291531    1.323016    0.000000
   1 C   6.0000    1    12.011    0.000000    2.646023    0.000000
   2 C   6.0000    1    12.011    2.291531    1.323012    0.000000
   3 C   6.0000    1    12.011    2.291531   -1.323016    0.000000
   4 C   6.0000    1    12.011   -0.000000   -2.646023    0.000000
   5 C   6.0000    1    12.011   -2.291531   -1.323012    0.000000
   6 H   1.0000    1     1.008   -4.070051    2.349848    0.000000
   7 H   1.0000    1     1.008    0.000000    4.699683    0.000000
   8 H   1.0000    1     1.008    4.070049    2.349848    0.000000
   9 H   1.0000    1     1.008    4.070051   -2.349848    0.000000
  10 H   1.0000    1     1.008   -0.000000   -4.699683    0.000000
  11 H   1.0000    1     1.008   -4.070049   -2.349848    0.000000

      -----------------------------------------------------------      
     |                   =====================                   |     
     |                           x T B                           |     
     |                   =====================                   |     
     |                         S. Grimme                         |     
     |          Mulliken Center for Theoretical Chemistry        |     
     |                    University of Bonn                     |     
      -----------------------------------------------------------      

   * xtb version 6.7.1 (edcfbbe) compiled by 'albert@albert-system' on 2024-07-22

   xtb is free software: you can redistribute it and/or modify it under
   the terms of the GNU Lesser General Public License as published by
   the Free Software Foundation, either version 3 of the License, or
   (at your option) any later version.
   
   xtb is distributed in the hope that it will be useful,
   but WITHOUT ANY WARRANTY; without even the implied warranty of
   MERCHANTABILITY or FITNESS FOR A PARTICULAR PURPOSE.  See the
   GNU Lesser General Public License for more details.
   
   Cite this work as:
   * C. Bannwarth, E. Caldeweyher, S. Ehlert, A. Hansen, P. Pracht,
     J. Seibert, S. Spicher, S. Grimme, WIREs Comput. Mol. Sci., 2020, 11,
     e01493. DOI: 10.1002/wcms.1493
   
   for GFN2-xTB:
   * C. Bannwarth, S. Ehlert and S. Grimme., J. Chem. Theory Comput., 2019,
     15, 1652-1671. DOI: 10.1021/acs.jctc.8b01176
   for GFN1-xTB:
   * S. Grimme, C. Bannwarth, P. Shushkov, J. Chem. Theory Comput., 2017,
     13, 1989-2009. DOI: 10.1021/acs.jctc.7b00118
   for GFN0-xTB:
   * P. Pracht, E. Caldeweyher, S. Ehlert, S. Grimme, ChemRxiv, 2019, preprint.
     DOI: 10.26434/chemrxiv.8326202.v1
   for GFN-FF:
   * S. Spicher and S. Grimme, Angew. Chem. Int. Ed., 2020, 59, 15665-15673.
     DOI: 10.1002/anie.202004239
   
   for ALPB and GBSA implicit solvation:
   * S. Ehlert, M. Stahn, S. Spicher, S. Grimme, J. Chem. Theory Comput.,
     2021, 17, 4250-4261. DOI: 10.1021/acs.jctc.1c00471
   
   for ddCOSMO and CPCM-X implicit solvation:
   * M. Stahn, S. Ehlert, S. Grimme, J. Phys. Chem. A,
     2023, XX, XXXX-XXXX. DOI: 10.1021/acs.jpca.3c04382
   
   for DFT-D4:
   * E. Caldeweyher, C. Bannwarth and S. Grimme, J. Chem. Phys., 2017,
     147, 034112. DOI: 10.1063/1.4993215
   * E. Caldeweyher, S. Ehlert, A. Hansen, H. Neugebauer, S. Spicher,
     C. Bannwarth and S. Grimme, J. Chem. Phys., 2019, 150, 154122.
     DOI: 10.1063/1.5090222
   * E. Caldeweyher, J.-M. Mewes, S. Ehlert and S. Grimme, Phys. Chem. Chem. Phys.
     2020, 22, 8499-8512. DOI: 10.1039/D0CP00502A
   
   for sTDA-xTB:
   * S. Grimme and C. Bannwarth, J. Chem. Phys., 2016, 145, 054103.
     DOI: 10.1063/1.4959605
   
   in the mass-spec context:
   * V. Asgeirsson, C. Bauer and S. Grimme, Chem. Sci., 2017, 8, 4879.
     DOI: 10.1039/c7sc00601b
   * J. Koopman and S. Grimme, ACS Omega 2019, 4, 12, 15120-15133.
     DOI: 10.1021/acsomega.9b02011
   
   for metadynamics refer to:
   * S. Grimme, J. Chem. Theory Comput., 2019, 155, 2847-2862
     DOI: 10.1021/acs.jctc.9b00143
   
   for SPH calculations refer to:
   * S. Spicher and S. Grimme, J. Chem. Theory Comput., 2021, 17, 1701-1714
     DOI: 10.1021/acs.jctc.0c01306
   
   for ONIOM refer to:
   * C. Plett, A. Katbashev, S. Ehlert, S. Grimme, M. Bursch,
     Phys. Chem. Chem. Phys., 2023, 25, 17860-17868. DOI: 10.1039/D3CP02178E
   
   for DIPRO refer to:
   * J. Kohn, N. Gildemeister, S. Grimme, D. Fazzi, A. Hansen,
     J. Chem. Phys., 2023, just accepted.
   
   for PTB refer to:
   * S. Grimme, M. Mueller, A. Hansen, J. Chem. Phys., 2023, 158, 124111.
     DOI: 10.1063/5.0137838
   
   with help from (in alphabetical order)
   P. Atkinson, C. Bannwarth, F. Bohle, G. Brandenburg, E. Caldeweyher
   M. Checinski, S. Dohm, S. Ehlert, S. Ehrlich, I. Gerasimov, C. Hölzer
   A. Katbashev, J. Kohn, J. Koopman, C. Lavigne, S. Lehtola, F. März, M. Müller,
   F. Musil, H. Neugebauer, J. Pisarek, C. Plett, P. Pracht, F. Pultar,
   J. Seibert, P. Shushkov, S. Spicher, M. Stahn, M. Steiner, T. Strunk,
   J. Stückrath, T. Rose, and J. Unsleber
   
 * started run on 2025/02/15 at 11:11:37.231     
   ID    Z sym.   atoms
    1    6 C      1-6
    2    1 H      7-12

           -------------------------------------------------
          |                Calculation Setup                |
           -------------------------------------------------

          program call               : /mnt/d/orca/otool_xtb goat_XTB.xyz --grad -c 0 -u 0 -P 4 --namespace goat --input goat_XTB.input.tmp --acc 0.200000
          calculation namespace      : goat
          coordinate file            : goat_XTB.xyz
          omp threads                :                     4


           -------------------------------------------------
          |                 G F N 2 - x T B                 |
           -------------------------------------------------

        Reference                      10.1021/acs.jctc.8b01176
      * Hamiltonian:
        H0-scaling (s, p, d)           1.850000    2.230000    2.230000
        zeta-weighting                 0.500000
      * Dispersion:
        s8                             2.700000
        a1                             0.520000
        a2                             5.000000
        s9                             5.000000
      * Repulsion:
        kExp                           1.500000    1.000000
        rExp                           1.000000
      * Coulomb:
        alpha                          2.000000
        third order                    shell-resolved
        anisotropic                    true
        a3                             3.000000
        a5                             4.000000
        cn-shift                       1.200000
        cn-exp                         4.000000
        max-rad                        5.000000


          ...................................................
          :                      SETUP                      :
          :.................................................:
          :  # basis functions                  30          :
          :  # atomic orbitals                  30          :
          :  # shells                           18          :
          :  # electrons                        30          :
          :  max. iterations                   250          :
          :  Hamiltonian                  GFN2-xTB          :
          :  restarted?                      false          :
          :  GBSA solvation                  false          :
          :  PC potential                    false          :
          :  electronic temp.          300.0000000     K    :
          :  accuracy                    0.2000000          :
          :  -> integral cutoff          0.3198970E+02      :
          :  -> integral neglect         0.2000000E-08      :
          :  -> SCF convergence          0.2000000E-06 Eh   :
          :  -> wf. convergence          0.2000000E-04 e    :
          :  Broyden damping             0.4000000          :
          :  net charge                          0          :
          :  unpaired electrons                  0          :
          ...................................................

 iter      E             dE          RMSdq      gap      omega  full diag
   1    -16.1541880 -0.161542E+02  0.499E+00    4.79       0.0  T
   2    -16.1690769 -0.148889E-01  0.299E+00    4.78       1.0  T
   3    -16.1694545 -0.377568E-03  0.484E-01    4.77       1.0  T
   4    -16.1697682 -0.313716E-03  0.521E-02    4.77       1.0  T
   5    -16.1697682 -0.263259E-07  0.609E-03    4.77       4.7  T
   6    -16.1697683 -0.149046E-07  0.802E-04    4.77      36.0  T
   7    -16.1697683 -0.806217E-10  0.388E-05    4.77     744.0  T
   8    -16.1697683 -0.602185E-11  0.625E-06    4.77    4618.0  T

   *** convergence criteria satisfied after 8 iterations ***

         #    Occupation            Energy/Eh            Energy/eV
      -------------------------------------------------------------
         1        2.0000           -0.6372216             -17.3397
       ...           ...                  ...                  ...
         9        2.0000           -0.4752976             -12.9335
        10        2.0000           -0.4752970             -12.9335
        11        2.0000           -0.4702058             -12.7950
        12        2.0000           -0.4221542             -11.4874
        13        2.0000           -0.4221537             -11.4874
        14        2.0000           -0.4000172             -10.8850
        15        2.0000           -0.4000168             -10.8850 (HOMO)
        16                         -0.2247384              -6.1154 (LUMO)
        17                         -0.2247381              -6.1154
        18                         -0.0992370              -2.7004
        19                          0.1116748               3.0388
        20                          0.1182010               3.2164
       ...                                ...                  ...
        30                          0.6307649              17.1640
      -------------------------------------------------------------
                  HL-Gap            0.1752785 Eh            4.7696 eV
             Fermi-level           -0.3123776 Eh           -8.5002 eV

 SCC (total)                   0 d,  0 h,  0 min,  1.089 sec
 SCC setup                      ...        0 min,  0.214 sec ( 19.643%)
 Dispersion                     ...        0 min,  0.040 sec (  3.628%)
 classical contributions        ...        0 min,  0.000 sec (  0.005%)
 integral evaluation            ...        0 min,  0.062 sec (  5.693%)
 iterations                     ...        0 min,  0.665 sec ( 61.071%)
 molecular gradient             ...        0 min,  0.066 sec (  6.053%)
 printout                       ...        0 min,  0.043 sec (  3.903%)

         :::::::::::::::::::::::::::::::::::::::::::::::::::::
         ::                     SUMMARY                     ::
         :::::::::::::::::::::::::::::::::::::::::::::::::::::
         :: total energy             -15.878013426256 Eh    ::
         :: gradient norm              0.030388337566 Eh/a0 ::
         :: HOMO-LUMO gap              4.769570131817 eV    ::
         ::.................................................::
         :: SCC energy               -16.169761120867 Eh    ::
         :: -> isotropic ES            0.000763270113 Eh    ::
         :: -> anisotropic ES          0.002753702802 Eh    ::
         :: -> anisotropic XC          0.013222722266 Eh    ::
         :: -> dispersion             -0.007972141781 Eh    ::
         :: repulsion energy           0.291747694611 Eh    ::
         :: add. restraining           0.000000000000 Eh    ::
         :: total charge              -0.000000000000 e     ::
         :::::::::::::::::::::::::::::::::::::::::::::::::::::


Property printout bound to 'properties.out'

           -------------------------------------------------
          | TOTAL ENERGY              -15.878013426256 Eh   |
          | GRADIENT NORM               0.030388337566 Eh/α |
          | HOMO-LUMO GAP               4.769570131817 eV   |
           -------------------------------------------------

------------------------------------------------------------------------
 * finished run on 2025/02/15 at 11:11:40.408     
------------------------------------------------------------------------
 total:
 * wall-time:     0 d,  0 h,  0 min,  3.116 sec
 *  cpu-time:     0 d,  0 h,  0 min,  4.402 sec
 * ratio c/w:     1.413 speedup
 SCF:
 * wall-time:     0 d,  0 h,  0 min,  1.139 sec
 *  cpu-time:     0 d,  0 h,  0 min,  1.984 sec
 * ratio c/w:     1.742 speedup


-------------------------   --------------------
FINAL SINGLE POINT ENERGY       -15.878013426260
-------------------------   --------------------


-------------
DIPOLE MOMENT
-------------
                                X             Y             Z
Total Dipole Moment    :      0.00000       0.00000      -0.00000
                        -----------------------------------------
Magnitude (a.u.)       :      0.00000
Magnitude (Debye)      :      0.00000

------------------------------------------------------------------------------
                         ORCA GEOMETRY RELAXATION STEP
------------------------------------------------------------------------------

Reading the OPT-File                    .... done
Getting information on internals        .... done
Copying old internal coords+grads       .... done
Making the new internal coordinates     .... (2022 redundants) done
Validating the new internal coordinates .... (2022 redundants) done
Calculating the B-matrix                .... done
Calculating the G,G- and P matrices     .... done
Transforming gradient to internals      .... done
Projecting the internal gradient        .... done
Number of atoms                         ....  12
Number of internal coordinates          ....  54
Current Energy                          ....   -15.878013426 Eh
Current gradient norm                   ....     0.030388338 Eh/bohr
Maximum allowed component of the step   ....  0.300
Current trust radius                    ....  0.300
Evaluating the initial hessian          ....  (Almloef) done
Projecting the Hessian                  .... done
Forming the augmented Hessian           .... done
Diagonalizing the augmented Hessian     .... done
Last element of RFO vector              ....  0.997357436
Lowest eigenvalues of augmented Hessian:
 -0.002971939  0.024972827  0.024972827  0.024972832  0.024972883
Length of the computed step             ....  0.072843336
The final length of the internal step   ....  0.072843336
Converting the step to Cartesian space:
 Initial RMS(Int)=    0.0099127224
Transforming coordinates:
 Iter   0:  RMS(Cart)=    0.0195516167 RMS(Int)=    2.0944185606
done
Storing new coordinates                 .... done

                                .--------------------.
          ----------------------|Geometry convergence|-------------------------
          Item                value                   Tolerance       Converged
          ---------------------------------------------------------------------
          RMS gradient        0.0056276814            0.0001000000      NO
          MAX gradient        0.0162047402            0.0003000000      NO
          RMS step            0.0099127224            0.0020000000      NO
          MAX step            0.0267958063            0.0040000000      NO
          ........................................................
          Max(Bonds)      0.0142      Max(Angles)    0.00
          Max(Dihed)        0.00      Max(Improp)    0.00
          ---------------------------------------------------------------------

The optimization has not yet converged - more geometry cycles are needed


    ---------------------------------------------------------------------------
                         Redundant Internal Coordinates
                            (Angstroem and degrees)

        Definition                    Value    dE/dq     Step     New-Value
    ----------------------------------------------------------------------------
     1. B(C   1,C   0)                1.4002  0.016204 -0.0142    1.3860   
     2. B(C   2,C   1)                1.4002  0.016205 -0.0142    1.3860   
     3. B(C   3,C   2)                1.4002  0.016204 -0.0142    1.3860   
     4. B(C   4,C   3)                1.4002  0.016204 -0.0142    1.3860   
     5. B(C   5,C   4)                1.4002  0.016205 -0.0142    1.3860   
     6. B(C   5,C   0)                1.4002  0.016204 -0.0142    1.3860   
     7. B(H   6,C   0)                1.0867  0.004739 -0.0068    1.0799   
     8. B(H   7,C   1)                1.0867  0.004739 -0.0068    1.0799   
     9. B(H   8,C   2)                1.0867  0.004739 -0.0068    1.0799   
    10. B(H   9,C   3)                1.0867  0.004739 -0.0068    1.0799   
    11. B(H  10,C   4)                1.0867  0.004739 -0.0068    1.0799   
    12. B(H  11,C   5)                1.0867  0.004739 -0.0068    1.0799   
    13. A(C   1,C   0,C   5)          120.00 -0.000001    0.00    120.00   
    14. A(C   1,C   0,H   6)          120.00  0.000000   -0.00    120.00   
    15. A(C   5,C   0,H   6)          120.00  0.000000   -0.00    120.00   
    16. A(C   2,C   1,H   7)          120.00 -0.000000    0.00    120.00   
    17. A(C   0,C   1,C   2)          120.00  0.000001   -0.00    120.00   
    18. A(C   0,C   1,H   7)          120.00 -0.000000    0.00    120.00   
    19. A(C   3,C   2,H   8)          120.00  0.000000   -0.00    120.00   
    20. A(C   1,C   2,H   8)          120.00 -0.000000    0.00    120.00   
    21. A(C   1,C   2,C   3)          120.00 -0.000000    0.00    120.00   
    22. A(C   4,C   3,H   9)          120.00  0.000000   -0.00    120.00   
    23. A(C   2,C   3,H   9)          120.00  0.000000   -0.00    120.00   
    24. A(C   2,C   3,C   4)          120.00 -0.000001    0.00    120.00   
    25. A(C   3,C   4,H  10)          120.00 -0.000000    0.00    120.00   
    26. A(C   3,C   4,C   5)          120.00  0.000001   -0.00    120.00   
    27. A(C   5,C   4,H  10)          120.00 -0.000000    0.00    120.00   
    28. A(C   0,C   5,C   4)          120.00 -0.000000    0.00    120.00   
    29. A(C   4,C   5,H  11)          120.00 -0.000000    0.00    120.00   
    30. A(C   0,C   5,H  11)          120.00  0.000000   -0.00    120.00   
    31. D(H   7,C   1,C   0,C   5)    180.00  0.000000   -0.00    180.00   
    32. D(H   7,C   1,C   0,H   6)      0.00  0.000000    0.00      0.00   
    33. D(C   2,C   1,C   0,H   6)    180.00  0.000000   -0.00    180.00   
    34. D(C   2,C   1,C   0,C   5)      0.00  0.000000   -0.00     -0.00   
    35. D(H   8,C   2,C   1,C   0)    180.00  0.000000    0.00    180.00   
    36. D(C   3,C   2,C   1,C   0)      0.00  0.000000    0.00      0.00   
    37. D(C   3,C   2,C   1,H   7)    180.00 -0.000000    0.00    180.00   
    38. D(H   8,C   2,C   1,H   7)      0.00 -0.000000   -0.00     -0.00   
    39. D(H   9,C   3,C   2,H   8)      0.00  0.000000    0.00      0.00   
    40. D(H   9,C   3,C   2,C   1)    180.00  0.000000    0.00    180.00   
    41. D(C   4,C   3,C   2,H   8)    180.00 -0.000000   -0.00    180.00   
    42. D(C   4,C   3,C   2,C   1)      0.00 -0.000000   -0.00     -0.00   
    43. D(H  10,C   4,C   3,C   2)    180.00  0.000000   -0.00    180.00   
    44. D(C   5,C   4,C   3,H   9)    180.00 -0.000000    0.00    180.00   
    45. D(C   5,C   4,C   3,C   2)      0.00  0.000000    0.00      0.00   
    46. D(H  10,C   4,C   3,H   9)      0.00 -0.000000   -0.00     -0.00   
    47. D(H  11,C   5,C   4,H  10)      0.00 -0.000000    0.00      0.00   
    48. D(C   0,C   5,C   4,H  10)    180.00  0.000000   -0.00    180.00   
    49. D(C   0,C   5,C   4,C   3)      0.00 -0.000000   -0.00     -0.00   
    50. D(H  11,C   5,C   0,H   6)      0.00  0.000000   -0.00     -0.00   
    51. D(H  11,C   5,C   0,C   1)    180.00 -0.000000    0.00    180.00   
    52. D(H  11,C   5,C   4,C   3)    180.00 -0.000000   -0.00    180.00   
    53. D(C   4,C   5,C   0,H   6)    180.00 -0.000000    0.00    180.00   
    54. D(C   4,C   5,C   0,C   1)      0.00 -0.000000    0.00      0.00   
    ----------------------------------------------------------------------------

Geometry step timings:
Preparation and reading OPT file:      0.007 s (11.647 %)
Internal coordinates            :      0.001 s ( 2.450 %)
B/P matrices and projection     :      0.002 s ( 4.071 %)
Hessian update/contruction      :      0.007 s (13.351 %)
Making the step                 :      0.005 s ( 9.633 %)
Converting the step to Cartesian:      0.001 s ( 2.047 %)
Storing new data                :      0.003 s ( 4.845 %)
Checking convergence            :      0.000 s ( 0.005 %)
Final printing                  :      0.029 s (51.929 %)
Total time                      :      0.056 s

Time for energy+gradient        :      3.541 s
Time for complete geometry iter :      3.699 s

         *************************************************************
         *                GEOMETRY OPTIMIZATION CYCLE   2            *
         *************************************************************
---------------------------------
CARTESIAN COORDINATES (ANGSTROEM)
---------------------------------
  C    -1.200346    0.693020    0.000000
  C     0.000000    1.386037   -0.000000
  C     1.200346    0.693019    0.000000
  C     1.200346   -0.693020   -0.000000
  C    -0.000000   -1.386037    0.000000
  C    -1.200346   -0.693019   -0.000000
  H    -2.135586    1.232983   -0.000000
  H    -0.000000    2.465961    0.000000
  H     2.135586    1.232983   -0.000000
  H     2.135586   -1.232983    0.000000
  H     0.000000   -2.465961   -0.000000
  H    -2.135586   -1.232983    0.000000

----------------------------
CARTESIAN COORDINATES (A.U.)
----------------------------
  NO LB    ZA    FRAG    MASS        X           Y           Z
   0 C   6.0000    1    12.011   -2.268324    1.309618    0.000000
   1 C   6.0000    1    12.011    0.000001    2.619230   -0.000000
   2 C   6.0000    1    12.011    2.268325    1.309616    0.000000
   3 C   6.0000    1    12.011    2.268324   -1.309618   -0.000000
   4 C   6.0000    1    12.011   -0.000001   -2.619230    0.000000
   5 C   6.0000    1    12.011   -2.268325   -1.309616   -0.000000
   6 H   1.0000    1     1.008   -4.035673    2.330000   -0.000000
   7 H   1.0000    1     1.008   -0.000000    4.659991    0.000000
   8 H   1.0000    1     1.008    4.035672    2.330000   -0.000000
   9 H   1.0000    1     1.008    4.035673   -2.330000    0.000000
  10 H   1.0000    1     1.008    0.000000   -4.659991   -0.000000
  11 H   1.0000    1     1.008   -4.035672   -2.330000    0.000000

      -----------------------------------------------------------      
     |                   =====================                   |     
     |                           x T B                           |     
     |                   =====================                   |     
     |                         S. Grimme                         |     
     |          Mulliken Center for Theoretical Chemistry        |     
     |                    University of Bonn                     |     
      -----------------------------------------------------------      

   * xtb version 6.7.1 (edcfbbe) compiled by 'albert@albert-system' on 2024-07-22

   xtb is free software: you can redistribute it and/or modify it under
   the terms of the GNU Lesser General Public License as published by
   the Free Software Foundation, either version 3 of the License, or
   (at your option) any later version.
   
   xtb is distributed in the hope that it will be useful,
   but WITHOUT ANY WARRANTY; without even the implied warranty of
   MERCHANTABILITY or FITNESS FOR A PARTICULAR PURPOSE.  See the
   GNU Lesser General Public License for more details.
   
   Cite this work as:
   * C. Bannwarth, E. Caldeweyher, S. Ehlert, A. Hansen, P. Pracht,
     J. Seibert, S. Spicher, S. Grimme, WIREs Comput. Mol. Sci., 2020, 11,
     e01493. DOI: 10.1002/wcms.1493
   
   for GFN2-xTB:
   * C. Bannwarth, S. Ehlert and S. Grimme., J. Chem. Theory Comput., 2019,
     15, 1652-1671. DOI: 10.1021/acs.jctc.8b01176
   for GFN1-xTB:
   * S. Grimme, C. Bannwarth, P. Shushkov, J. Chem. Theory Comput., 2017,
     13, 1989-2009. DOI: 10.1021/acs.jctc.7b00118
   for GFN0-xTB:
   * P. Pracht, E. Caldeweyher, S. Ehlert, S. Grimme, ChemRxiv, 2019, preprint.
     DOI: 10.26434/chemrxiv.8326202.v1
   for GFN-FF:
   * S. Spicher and S. Grimme, Angew. Chem. Int. Ed., 2020, 59, 15665-15673.
     DOI: 10.1002/anie.202004239
   
   for ALPB and GBSA implicit solvation:
   * S. Ehlert, M. Stahn, S. Spicher, S. Grimme, J. Chem. Theory Comput.,
     2021, 17, 4250-4261. DOI: 10.1021/acs.jctc.1c00471
   
   for ddCOSMO and CPCM-X implicit solvation:
   * M. Stahn, S. Ehlert, S. Grimme, J. Phys. Chem. A,
     2023, XX, XXXX-XXXX. DOI: 10.1021/acs.jpca.3c04382
   
   for DFT-D4:
   * E. Caldeweyher, C. Bannwarth and S. Grimme, J. Chem. Phys., 2017,
     147, 034112. DOI: 10.1063/1.4993215
   * E. Caldeweyher, S. Ehlert, A. Hansen, H. Neugebauer, S. Spicher,
     C. Bannwarth and S. Grimme, J. Chem. Phys., 2019, 150, 154122.
     DOI: 10.1063/1.5090222
   * E. Caldeweyher, J.-M. Mewes, S. Ehlert and S. Grimme, Phys. Chem. Chem. Phys.
     2020, 22, 8499-8512. DOI: 10.1039/D0CP00502A
   
   for sTDA-xTB:
   * S. Grimme and C. Bannwarth, J. Chem. Phys., 2016, 145, 054103.
     DOI: 10.1063/1.4959605
   
   in the mass-spec context:
   * V. Asgeirsson, C. Bauer and S. Grimme, Chem. Sci., 2017, 8, 4879.
     DOI: 10.1039/c7sc00601b
   * J. Koopman and S. Grimme, ACS Omega 2019, 4, 12, 15120-15133.
     DOI: 10.1021/acsomega.9b02011
   
   for metadynamics refer to:
   * S. Grimme, J. Chem. Theory Comput., 2019, 155, 2847-2862
     DOI: 10.1021/acs.jctc.9b00143
   
   for SPH calculations refer to:
   * S. Spicher and S. Grimme, J. Chem. Theory Comput., 2021, 17, 1701-1714
     DOI: 10.1021/acs.jctc.0c01306
   
   for ONIOM refer to:
   * C. Plett, A. Katbashev, S. Ehlert, S. Grimme, M. Bursch,
     Phys. Chem. Chem. Phys., 2023, 25, 17860-17868. DOI: 10.1039/D3CP02178E
   
   for DIPRO refer to:
   * J. Kohn, N. Gildemeister, S. Grimme, D. Fazzi, A. Hansen,
     J. Chem. Phys., 2023, just accepted.
   
   for PTB refer to:
   * S. Grimme, M. Mueller, A. Hansen, J. Chem. Phys., 2023, 158, 124111.
     DOI: 10.1063/5.0137838
   
   with help from (in alphabetical order)
   P. Atkinson, C. Bannwarth, F. Bohle, G. Brandenburg, E. Caldeweyher
   M. Checinski, S. Dohm, S. Ehlert, S. Ehrlich, I. Gerasimov, C. Hölzer
   A. Katbashev, J. Kohn, J. Koopman, C. Lavigne, S. Lehtola, F. März, M. Müller,
   F. Musil, H. Neugebauer, J. Pisarek, C. Plett, P. Pracht, F. Pultar,
   J. Seibert, P. Shushkov, S. Spicher, M. Stahn, M. Steiner, T. Strunk,
   J. Stückrath, T. Rose, and J. Unsleber
   
 * started run on 2025/02/15 at 11:11:40.909     
   ID    Z sym.   atoms
    1    6 C      1-6
    2    1 H      7-12

           -------------------------------------------------
          |                Calculation Setup                |
           -------------------------------------------------

          program call               : /mnt/d/orca/otool_xtb goat_XTB.xyz --grad -c 0 -u 0 -P 4 --namespace goat --input goat_XTB.input.tmp --acc 0.200000
          calculation namespace      : goat
          coordinate file            : goat_XTB.xyz
          omp threads                :                     4


           -------------------------------------------------
          |                 G F N 2 - x T B                 |
           -------------------------------------------------

        Reference                      10.1021/acs.jctc.8b01176
      * Hamiltonian:
        H0-scaling (s, p, d)           1.850000    2.230000    2.230000
        zeta-weighting                 0.500000
      * Dispersion:
        s8                             2.700000
        a1                             0.520000
        a2                             5.000000
        s9                             5.000000
      * Repulsion:
        kExp                           1.500000    1.000000
        rExp                           1.000000
      * Coulomb:
        alpha                          2.000000
        third order                    shell-resolved
        anisotropic                    true
        a3                             3.000000
        a5                             4.000000
        cn-shift                       1.200000
        cn-exp                         4.000000
        max-rad                        5.000000

q/qsh data taken from xtbrestart
CAMM data taken from xtbrestart

          ...................................................
          :                      SETUP                      :
          :.................................................:
          :  # basis functions                  30          :
          :  # atomic orbitals                  30          :
          :  # shells                           18          :
          :  # electrons                        30          :
          :  max. iterations                   250          :
          :  Hamiltonian                  GFN2-xTB          :
          :  restarted?                       true          :
          :  GBSA solvation                  false          :
          :  PC potential                    false          :
          :  electronic temp.          300.0000000     K    :
          :  accuracy                    0.2000000          :
          :  -> integral cutoff          0.3198970E+02      :
          :  -> integral neglect         0.2000000E-08      :
          :  -> SCF convergence          0.2000000E-06 Eh   :
          :  -> wf. convergence          0.2000000E-04 e    :
          :  Broyden damping             0.4000000          :
          :  net charge                          0          :
          :  unpaired electrons                  0          :
          ...................................................

 iter      E             dE          RMSdq      gap      omega  full diag
   1    -16.1950353 -0.161950E+02  0.176E-01    4.92       0.0  T
   2    -16.1950367 -0.140941E-05  0.105E-01    4.92       1.0  T
   3    -16.1950371 -0.314130E-06  0.489E-03    4.92       5.9  T
   4    -16.1950371 -0.282317E-07  0.193E-03    4.92      15.0  T
   5    -16.1950371 -0.299860E-09  0.610E-05    4.92     473.2  T
   6    -16.1950371 -0.188294E-12  0.306E-05    4.92     943.1  T

   *** convergence criteria satisfied after 6 iterations ***

         #    Occupation            Energy/Eh            Energy/eV
      -------------------------------------------------------------
         1        2.0000           -0.6412206             -17.4485
       ...           ...                  ...                  ...
         9        2.0000           -0.4762606             -12.9597
        10        2.0000           -0.4762603             -12.9597
        11        2.0000           -0.4742933             -12.9062
        12        2.0000           -0.4214627             -11.4686
        13        2.0000           -0.4214624             -11.4686
        14        2.0000           -0.4022563             -10.9459
        15        2.0000           -0.4022562             -10.9459 (HOMO)
        16                         -0.2214958              -6.0272 (LUMO)
        17                         -0.2214956              -6.0272
        18                         -0.0907685              -2.4699
        19                          0.1190905               3.2406
        20                          0.1371419               3.7318
       ...                                ...                  ...
        30                          0.6710396              18.2599
      -------------------------------------------------------------
                  HL-Gap            0.1807604 Eh            4.9187 eV
             Fermi-level           -0.3118760 Eh           -8.4866 eV

 SCC (total)                   0 d,  0 h,  0 min,  0.275 sec
 SCC setup                      ...        0 min,  0.048 sec ( 17.318%)
 Dispersion                     ...        0 min,  0.009 sec (  3.268%)
 classical contributions        ...        0 min,  0.000 sec (  0.017%)
 integral evaluation            ...        0 min,  0.010 sec (  3.668%)
 iterations                     ...        0 min,  0.169 sec ( 61.364%)
 molecular gradient             ...        0 min,  0.028 sec ( 10.301%)
 printout                       ...        0 min,  0.011 sec (  4.049%)

         :::::::::::::::::::::::::::::::::::::::::::::::::::::
         ::                     SUMMARY                     ::
         :::::::::::::::::::::::::::::::::::::::::::::::::::::
         :: total energy             -15.879627415651 Eh    ::
         :: gradient norm              0.004394686183 Eh/a0 ::
         :: HOMO-LUMO gap              4.918741917939 eV    ::
         ::.................................................::
         :: SCC energy               -16.195030278854 Eh    ::
         :: -> isotropic ES            0.000800606812 Eh    ::
         :: -> anisotropic ES          0.002529628233 Eh    ::
         :: -> anisotropic XC          0.012426549992 Eh    ::
         :: -> dispersion             -0.008015563284 Eh    ::
         :: repulsion energy           0.315402863202 Eh    ::
         :: add. restraining           0.000000000000 Eh    ::
         :: total charge              -0.000000000000 e     ::
         :::::::::::::::::::::::::::::::::::::::::::::::::::::


Property printout bound to 'properties.out'

           -------------------------------------------------
          | TOTAL ENERGY              -15.879627415651 Eh   |
          | GRADIENT NORM               0.004394686183 Eh/α |
          | HOMO-LUMO GAP               4.918741917939 eV   |
           -------------------------------------------------

------------------------------------------------------------------------
 * finished run on 2025/02/15 at 11:11:41.862     
------------------------------------------------------------------------
 total:
 * wall-time:     0 d,  0 h,  0 min,  0.914 sec
 *  cpu-time:     0 d,  0 h,  0 min,  2.255 sec
 * ratio c/w:     2.468 speedup
 SCF:
 * wall-time:     0 d,  0 h,  0 min,  0.288 sec
 *  cpu-time:     0 d,  0 h,  0 min,  0.848 sec
 * ratio c/w:     2.950 speedup


-------------------------   --------------------
FINAL SINGLE POINT ENERGY       -15.879627415650
-------------------------   --------------------


-------------
DIPOLE MOMENT
-------------
                                X             Y             Z
Total Dipole Moment    :     -0.00000       0.00000       0.00000
                        -----------------------------------------
Magnitude (a.u.)       :      0.00000
Magnitude (Debye)      :      0.00000

------------------------------------------------------------------------------
                         ORCA GEOMETRY RELAXATION STEP
------------------------------------------------------------------------------

Reading the OPT-File                    .... done
Getting information on internals        .... done
Copying old internal coords+grads       .... done
Making the new internal coordinates     .... (2022 redundants) done
Validating the new internal coordinates .... (2022 redundants) done
Calculating the B-matrix                .... done
Calculating the G,G- and P matrices     .... done
Transforming gradient to internals      .... done
Projecting the internal gradient        .... done
Number of atoms                         ....  12
Number of internal coordinates          ....  54
Current Energy                          ....   -15.879627416 Eh
Current gradient norm                   ....     0.004394686 Eh/bohr
Maximum allowed component of the step   ....  0.300
Current trust radius                    ....  0.300
Updating the Hessian (BFGS)             .... done
Forming the augmented Hessian           .... done
Diagonalizing the augmented Hessian     .... done
Last element of RFO vector              ....  0.999975203
Lowest eigenvalues of augmented Hessian:
 -0.000026276  0.024972827  0.024972827  0.024972832  0.024972883
Length of the computed step             ....  0.007042381
The final length of the internal step   ....  0.007042381
Converting the step to Cartesian space:
 Initial RMS(Int)=    0.0009583467
Transforming coordinates:
 Iter   0:  RMS(Cart)=    0.0013968089 RMS(Int)=    2.7038526205
done
Storing new coordinates                 .... done
The predicted energy change is          ....    -0.000013138
Previously predicted energy change      ....    -0.001493854
Actually observed energy change         ....    -0.001613989
Ratio of predicted to observed change   ....     1.080419598
New trust radius                        ....     0.450000000

                                .--------------------.
          ----------------------|Geometry convergence|-------------------------
          Item                value                   Tolerance       Converged
          ---------------------------------------------------------------------
          Energy change      -0.0016139894            0.0000050000      NO
          RMS gradient        0.0005099548            0.0001000000      NO
          MAX gradient        0.0015063149            0.0003000000      NO
          RMS step            0.0009583467            0.0020000000      YES
          MAX step            0.0027715326            0.0040000000      YES
          ........................................................
          Max(Bonds)      0.0015      Max(Angles)    0.00
          Max(Dihed)        0.00      Max(Improp)    0.00
          ---------------------------------------------------------------------

The optimization has not yet converged - more geometry cycles are needed


    ---------------------------------------------------------------------------
                         Redundant Internal Coordinates
                            (Angstroem and degrees)

        Definition                    Value    dE/dq     Step     New-Value
    ----------------------------------------------------------------------------
     1. B(C   1,C   0)                1.3860  0.001506 -0.0015    1.3846   
     2. B(C   2,C   1)                1.3860  0.001506 -0.0015    1.3846   
     3. B(C   3,C   2)                1.3860  0.001506 -0.0015    1.3846   
     4. B(C   4,C   3)                1.3860  0.001506 -0.0015    1.3846   
     5. B(C   5,C   4)                1.3860  0.001506 -0.0015    1.3846   
     6. B(C   5,C   0)                1.3860  0.001506 -0.0015    1.3846   
     7. B(H   6,C   0)                1.0799 -0.000268  0.0004    1.0803   
     8. B(H   7,C   1)                1.0799 -0.000268  0.0004    1.0803   
     9. B(H   8,C   2)                1.0799 -0.000268  0.0004    1.0803   
    10. B(H   9,C   3)                1.0799 -0.000268  0.0004    1.0803   
    11. B(H  10,C   4)                1.0799 -0.000268  0.0004    1.0803   
    12. B(H  11,C   5)                1.0799 -0.000268  0.0004    1.0803   
    13. A(C   1,C   0,C   5)          120.00 -0.000000    0.00    120.00   
    14. A(C   1,C   0,H   6)          120.00  0.000000   -0.00    120.00   
    15. A(C   5,C   0,H   6)          120.00  0.000000   -0.00    120.00   
    16. A(C   2,C   1,H   7)          120.00 -0.000000    0.00    120.00   
    17. A(C   0,C   1,C   2)          120.00  0.000000   -0.00    120.00   
    18. A(C   0,C   1,H   7)          120.00 -0.000000    0.00    120.00   
    19. A(C   3,C   2,H   8)          120.00  0.000000   -0.00    120.00   
    20. A(C   1,C   2,H   8)          120.00 -0.000000    0.00    120.00   
    21. A(C   1,C   2,C   3)          120.00 -0.000000    0.00    120.00   
    22. A(C   4,C   3,H   9)          120.00  0.000000   -0.00    120.00   
    23. A(C   2,C   3,H   9)          120.00  0.000000   -0.00    120.00   
    24. A(C   2,C   3,C   4)          120.00 -0.000000    0.00    120.00   
    25. A(C   3,C   4,H  10)          120.00 -0.000000    0.00    120.00   
    26. A(C   3,C   4,C   5)          120.00  0.000000   -0.00    120.00   
    27. A(C   5,C   4,H  10)          120.00 -0.000000    0.00    120.00   
    28. A(C   0,C   5,C   4)          120.00 -0.000000    0.00    120.00   
    29. A(C   4,C   5,H  11)          120.00 -0.000000    0.00    120.00   
    30. A(C   0,C   5,H  11)          120.00  0.000000   -0.00    120.00   
    31. D(H   7,C   1,C   0,C   5)    180.00 -0.000000    0.00    180.00   
    32. D(H   7,C   1,C   0,H   6)      0.00  0.000000   -0.00     -0.00   
    33. D(C   2,C   1,C   0,H   6)    180.00 -0.000000    0.00    180.00   
    34. D(C   2,C   1,C   0,C   5)     -0.00 -0.000000    0.00      0.00   
    35. D(H   8,C   2,C   1,C   0)   -180.00  0.000000   -0.00   -180.00   
    36. D(C   3,C   2,C   1,C   0)      0.00  0.000000   -0.00     -0.00   
    37. D(C   3,C   2,C   1,H   7)   -180.00  0.000000   -0.00   -180.00   
    38. D(H   8,C   2,C   1,H   7)     -0.00 -0.000000    0.00      0.00   
    39. D(H   9,C   3,C   2,H   8)      0.00  0.000000   -0.00     -0.00   
    40. D(H   9,C   3,C   2,C   1)   -180.00 -0.000000    0.00   -180.00   
    41. D(C   4,C   3,C   2,H   8)    180.00 -0.000000    0.00    180.00   
    42. D(C   4,C   3,C   2,C   1)     -0.00 -0.000000    0.00      0.00   
    43. D(H  10,C   4,C   3,C   2)    180.00  0.000000   -0.00    180.00   
    44. D(C   5,C   4,C   3,H   9)   -180.00  0.000000   -0.00   -180.00   
    45. D(C   5,C   4,C   3,C   2)      0.00  0.000000   -0.00     -0.00   
    46. D(H  10,C   4,C   3,H   9)     -0.00 -0.000000    0.00      0.00   
    47. D(H  11,C   5,C   4,H  10)      0.00  0.000000   -0.00     -0.00   
    48. D(C   0,C   5,C   4,H  10)    180.00 -0.000000    0.00    180.00   
    49. D(C   0,C   5,C   4,C   3)     -0.00 -0.000000    0.00      0.00   
    50. D(H  11,C   5,C   0,H   6)     -0.00 -0.000000    0.00      0.00   
    51. D(H  11,C   5,C   0,C   1)   -180.00  0.000000   -0.00   -180.00   
    52. D(H  11,C   5,C   4,C   3)    180.00 -0.000000    0.00    180.00   
    53. D(C   4,C   5,C   0,H   6)   -180.00  0.000000   -0.00   -180.00   
    54. D(C   4,C   5,C   0,C   1)      0.00  0.000000   -0.00     -0.00   
    ----------------------------------------------------------------------------

Geometry step timings:
Preparation and reading OPT file:      0.003 s ( 5.542 %)
Internal coordinates            :      0.002 s ( 2.958 %)
B/P matrices and projection     :      0.002 s ( 3.630 %)
Hessian update/contruction      :      0.013 s (23.582 %)
Making the step                 :      0.003 s ( 5.809 %)
Converting the step to Cartesian:      0.001 s ( 1.891 %)
Storing new data                :      0.003 s ( 5.517 %)
Checking convergence            :      0.001 s ( 1.191 %)
Final printing                  :      0.027 s (49.868 %)
Total time                      :      0.054 s

Time for energy+gradient        :      1.235 s
Time for complete geometry iter :      1.348 s

         *************************************************************
         *                GEOMETRY OPTIMIZATION CYCLE   3            *
         *************************************************************
---------------------------------
CARTESIAN COORDINATES (ANGSTROEM)
---------------------------------
  C    -1.199075    0.692286   -0.000000
  C     0.000000    1.384571    0.000000
  C     1.199075    0.692286   -0.000000
  C     1.199075   -0.692286    0.000000
  C    -0.000000   -1.384571   -0.000000
  C    -1.199075   -0.692286    0.000000
  H    -2.134667    1.232451   -0.000000
  H     0.000000    2.464900   -0.000000
  H     2.134666    1.232452   -0.000000
  H     2.134667   -1.232451    0.000000
  H    -0.000000   -2.464900   -0.000000
  H    -2.134666   -1.232452    0.000000

----------------------------
CARTESIAN COORDINATES (A.U.)
----------------------------
  NO LB    ZA    FRAG    MASS        X           Y           Z
   0 C   6.0000    1    12.011   -2.265924    1.308232   -0.000000
   1 C   6.0000    1    12.011    0.000001    2.616460    0.000000
   2 C   6.0000    1    12.011    2.265924    1.308230   -0.000000
   3 C   6.0000    1    12.011    2.265924   -1.308232    0.000000
   4 C   6.0000    1    12.011   -0.000001   -2.616460   -0.000000
   5 C   6.0000    1    12.011   -2.265924   -1.308230    0.000000
   6 H   1.0000    1     1.008   -4.033935    2.328996   -0.000000
   7 H   1.0000    1     1.008    0.000000    4.657986   -0.000000
   8 H   1.0000    1     1.008    4.033935    2.328996   -0.000000
   9 H   1.0000    1     1.008    4.033935   -2.328996    0.000000
  10 H   1.0000    1     1.008   -0.000000   -4.657986   -0.000000
  11 H   1.0000    1     1.008   -4.033935   -2.328996    0.000000

      -----------------------------------------------------------      
     |                   =====================                   |     
     |                           x T B                           |     
     |                   =====================                   |     
     |                         S. Grimme                         |     
     |          Mulliken Center for Theoretical Chemistry        |     
     |                    University of Bonn                     |     
      -----------------------------------------------------------      

   * xtb version 6.7.1 (edcfbbe) compiled by 'albert@albert-system' on 2024-07-22

   xtb is free software: you can redistribute it and/or modify it under
   the terms of the GNU Lesser General Public License as published by
   the Free Software Foundation, either version 3 of the License, or
   (at your option) any later version.
   
   xtb is distributed in the hope that it will be useful,
   but WITHOUT ANY WARRANTY; without even the implied warranty of
   MERCHANTABILITY or FITNESS FOR A PARTICULAR PURPOSE.  See the
   GNU Lesser General Public License for more details.
   
   Cite this work as:
   * C. Bannwarth, E. Caldeweyher, S. Ehlert, A. Hansen, P. Pracht,
     J. Seibert, S. Spicher, S. Grimme, WIREs Comput. Mol. Sci., 2020, 11,
     e01493. DOI: 10.1002/wcms.1493
   
   for GFN2-xTB:
   * C. Bannwarth, S. Ehlert and S. Grimme., J. Chem. Theory Comput., 2019,
     15, 1652-1671. DOI: 10.1021/acs.jctc.8b01176
   for GFN1-xTB:
   * S. Grimme, C. Bannwarth, P. Shushkov, J. Chem. Theory Comput., 2017,
     13, 1989-2009. DOI: 10.1021/acs.jctc.7b00118
   for GFN0-xTB:
   * P. Pracht, E. Caldeweyher, S. Ehlert, S. Grimme, ChemRxiv, 2019, preprint.
     DOI: 10.26434/chemrxiv.8326202.v1
   for GFN-FF:
   * S. Spicher and S. Grimme, Angew. Chem. Int. Ed., 2020, 59, 15665-15673.
     DOI: 10.1002/anie.202004239
   
   for ALPB and GBSA implicit solvation:
   * S. Ehlert, M. Stahn, S. Spicher, S. Grimme, J. Chem. Theory Comput.,
     2021, 17, 4250-4261. DOI: 10.1021/acs.jctc.1c00471
   
   for ddCOSMO and CPCM-X implicit solvation:
   * M. Stahn, S. Ehlert, S. Grimme, J. Phys. Chem. A,
     2023, XX, XXXX-XXXX. DOI: 10.1021/acs.jpca.3c04382
   
   for DFT-D4:
   * E. Caldeweyher, C. Bannwarth and S. Grimme, J. Chem. Phys., 2017,
     147, 034112. DOI: 10.1063/1.4993215
   * E. Caldeweyher, S. Ehlert, A. Hansen, H. Neugebauer, S. Spicher,
     C. Bannwarth and S. Grimme, J. Chem. Phys., 2019, 150, 154122.
     DOI: 10.1063/1.5090222
   * E. Caldeweyher, J.-M. Mewes, S. Ehlert and S. Grimme, Phys. Chem. Chem. Phys.
     2020, 22, 8499-8512. DOI: 10.1039/D0CP00502A
   
   for sTDA-xTB:
   * S. Grimme and C. Bannwarth, J. Chem. Phys., 2016, 145, 054103.
     DOI: 10.1063/1.4959605
   
   in the mass-spec context:
   * V. Asgeirsson, C. Bauer and S. Grimme, Chem. Sci., 2017, 8, 4879.
     DOI: 10.1039/c7sc00601b
   * J. Koopman and S. Grimme, ACS Omega 2019, 4, 12, 15120-15133.
     DOI: 10.1021/acsomega.9b02011
   
   for metadynamics refer to:
   * S. Grimme, J. Chem. Theory Comput., 2019, 155, 2847-2862
     DOI: 10.1021/acs.jctc.9b00143
   
   for SPH calculations refer to:
   * S. Spicher and S. Grimme, J. Chem. Theory Comput., 2021, 17, 1701-1714
     DOI: 10.1021/acs.jctc.0c01306
   
   for ONIOM refer to:
   * C. Plett, A. Katbashev, S. Ehlert, S. Grimme, M. Bursch,
     Phys. Chem. Chem. Phys., 2023, 25, 17860-17868. DOI: 10.1039/D3CP02178E
   
   for DIPRO refer to:
   * J. Kohn, N. Gildemeister, S. Grimme, D. Fazzi, A. Hansen,
     J. Chem. Phys., 2023, just accepted.
   
   for PTB refer to:
   * S. Grimme, M. Mueller, A. Hansen, J. Chem. Phys., 2023, 158, 124111.
     DOI: 10.1063/5.0137838
   
   with help from (in alphabetical order)
   P. Atkinson, C. Bannwarth, F. Bohle, G. Brandenburg, E. Caldeweyher
   M. Checinski, S. Dohm, S. Ehlert, S. Ehrlich, I. Gerasimov, C. Hölzer
   A. Katbashev, J. Kohn, J. Koopman, C. Lavigne, S. Lehtola, F. März, M. Müller,
   F. Musil, H. Neugebauer, J. Pisarek, C. Plett, P. Pracht, F. Pultar,
   J. Seibert, P. Shushkov, S. Spicher, M. Stahn, M. Steiner, T. Strunk,
   J. Stückrath, T. Rose, and J. Unsleber
   
 * started run on 2025/02/15 at 11:11:42.258     
   ID    Z sym.   atoms
    1    6 C      1-6
    2    1 H      7-12

           -------------------------------------------------
          |                Calculation Setup                |
           -------------------------------------------------

          program call               : /mnt/d/orca/otool_xtb goat_XTB.xyz --grad -c 0 -u 0 -P 4 --namespace goat --input goat_XTB.input.tmp --acc 0.200000
          calculation namespace      : goat
          coordinate file            : goat_XTB.xyz
          omp threads                :                     4


           -------------------------------------------------
          |                 G F N 2 - x T B                 |
           -------------------------------------------------

        Reference                      10.1021/acs.jctc.8b01176
      * Hamiltonian:
        H0-scaling (s, p, d)           1.850000    2.230000    2.230000
        zeta-weighting                 0.500000
      * Dispersion:
        s8                             2.700000
        a1                             0.520000
        a2                             5.000000
        s9                             5.000000
      * Repulsion:
        kExp                           1.500000    1.000000
        rExp                           1.000000
      * Coulomb:
        alpha                          2.000000
        third order                    shell-resolved
        anisotropic                    true
        a3                             3.000000
        a5                             4.000000
        cn-shift                       1.200000
        cn-exp                         4.000000
        max-rad                        5.000000

q/qsh data taken from xtbrestart
CAMM data taken from xtbrestart

          ...................................................
          :                      SETUP                      :
          :.................................................:
          :  # basis functions                  30          :
          :  # atomic orbitals                  30          :
          :  # shells                           18          :
          :  # electrons                        30          :
          :  max. iterations                   250          :
          :  Hamiltonian                  GFN2-xTB          :
          :  restarted?                       true          :
          :  GBSA solvation                  false          :
          :  PC potential                    false          :
          :  electronic temp.          300.0000000     K    :
          :  accuracy                    0.2000000          :
          :  -> integral cutoff          0.3198970E+02      :
          :  -> integral neglect         0.2000000E-08      :
          :  -> SCF convergence          0.2000000E-06 Eh   :
          :  -> wf. convergence          0.2000000E-04 e    :
          :  Broyden damping             0.4000000          :
          :  net charge                          0          :
          :  unpaired electrons                  0          :
          ...................................................

 iter      E             dE          RMSdq      gap      omega  full diag
   1    -16.1966843 -0.161967E+02  0.149E-02    4.93       0.0  T
   2    -16.1966844 -0.790802E-07  0.887E-03    4.93       3.3  T
   3    -16.1966844 -0.201912E-08  0.102E-03    4.93      28.3  T
   4    -16.1966844 -0.186568E-08  0.142E-04    4.93     203.9  T
   5    -16.1966844  0.133227E-11  0.141E-05    4.93    2052.3  T

   *** convergence criteria satisfied after 5 iterations ***

         #    Occupation            Energy/Eh            Energy/eV
      -------------------------------------------------------------
         1        2.0000           -0.6416610             -17.4605
       ...           ...                  ...                  ...
         9        2.0000           -0.4763530             -12.9622
        10        2.0000           -0.4763528             -12.9622
        11        2.0000           -0.4747588             -12.9188
        12        2.0000           -0.4213953             -11.4667
        13        2.0000           -0.4213951             -11.4667
        14        2.0000           -0.4025261             -10.9533
        15        2.0000           -0.4025259             -10.9533 (HOMO)
        16                         -0.2211866              -6.0188 (LUMO)
        17                         -0.2211864              -6.0188
        18                         -0.0899038              -2.4464
        19                          0.1182012               3.2164
        20                          0.1378726               3.7517
       ...                                ...                  ...
        30                          0.6743009              18.3487
      -------------------------------------------------------------
                  HL-Gap            0.1813393 Eh            4.9345 eV
             Fermi-level           -0.3118563 Eh           -8.4860 eV

 SCC (total)                   0 d,  0 h,  0 min,  0.272 sec
 SCC setup                      ...        0 min,  0.060 sec ( 22.126%)
 Dispersion                     ...        0 min,  0.010 sec (  3.758%)
 classical contributions        ...        0 min,  0.000 sec (  0.022%)
 integral evaluation            ...        0 min,  0.011 sec (  3.960%)
 iterations                     ...        0 min,  0.164 sec ( 60.134%)
 molecular gradient             ...        0 min,  0.015 sec (  5.591%)
 printout                       ...        0 min,  0.012 sec (  4.391%)

         :::::::::::::::::::::::::::::::::::::::::::::::::::::
         ::                     SUMMARY                     ::
         :::::::::::::::::::::::::::::::::::::::::::::::::::::
         :: total energy             -15.879640587362 Eh    ::
         :: gradient norm              0.000269569974 Eh/a0 ::
         :: HOMO-LUMO gap              4.934492853497 eV    ::
         ::.................................................::
         :: SCC energy               -16.196677625281 Eh    ::
         :: -> isotropic ES            0.000792728156 Eh    ::
         :: -> anisotropic ES          0.002516280641 Eh    ::
         :: -> anisotropic XC          0.012383459224 Eh    ::
         :: -> dispersion             -0.008019644210 Eh    ::
         :: repulsion energy           0.317037037919 Eh    ::
         :: add. restraining           0.000000000000 Eh    ::
         :: total charge              -0.000000000000 e     ::
         :::::::::::::::::::::::::::::::::::::::::::::::::::::


Property printout bound to 'properties.out'

           -------------------------------------------------
          | TOTAL ENERGY              -15.879640587362 Eh   |
          | GRADIENT NORM               0.000269569974 Eh/α |
          | HOMO-LUMO GAP               4.934492853497 eV   |
           -------------------------------------------------

------------------------------------------------------------------------
 * finished run on 2025/02/15 at 11:11:43.268     
------------------------------------------------------------------------
 total:
 * wall-time:     0 d,  0 h,  0 min,  0.970 sec
 *  cpu-time:     0 d,  0 h,  0 min,  2.430 sec
 * ratio c/w:     2.507 speedup
 SCF:
 * wall-time:     0 d,  0 h,  0 min,  0.291 sec
 *  cpu-time:     0 d,  0 h,  0 min,  0.838 sec
 * ratio c/w:     2.875 speedup


-------------------------   --------------------
FINAL SINGLE POINT ENERGY       -15.879640587360
-------------------------   --------------------


-------------
DIPOLE MOMENT
-------------
                                X             Y             Z
Total Dipole Moment    :      0.00000      -0.00000      -0.00000
                        -----------------------------------------
Magnitude (a.u.)       :      0.00000
Magnitude (Debye)      :      0.00000

------------------------------------------------------------------------------
                         ORCA GEOMETRY RELAXATION STEP
------------------------------------------------------------------------------

Reading the OPT-File                    .... done
Getting information on internals        .... done
Copying old internal coords+grads       .... done
Making the new internal coordinates     .... (2022 redundants) done
Validating the new internal coordinates .... (2022 redundants) done
Calculating the B-matrix                .... done
Calculating the G,G- and P matrices     .... done
Transforming gradient to internals      .... done
Projecting the internal gradient        .... done
Number of atoms                         ....  12
Number of internal coordinates          ....  54
Current Energy                          ....   -15.879640587 Eh
Current gradient norm                   ....     0.000269570 Eh/bohr
Maximum allowed component of the step   ....  0.300
Current trust radius                    ....  0.450
Updating the Hessian (BFGS)             .... done
Forming the augmented Hessian           .... done
Diagonalizing the augmented Hessian     .... done
Last element of RFO vector              ....  0.999999827
Lowest eigenvalues of augmented Hessian:
 -0.000000129  0.024972827  0.024972827  0.024972832  0.024972883
Length of the computed step             ....  0.000587868
The final length of the internal step   ....  0.000587868
Converting the step to Cartesian space:
 Initial RMS(Int)=    0.0000799988
Transforming coordinates:
 Iter   0:  RMS(Cart)=    0.0001077700 RMS(Int)=    2.5650996616
done
Storing new coordinates                 .... done
The predicted energy change is          ....    -0.000000065
Previously predicted energy change      ....    -0.000013138
Actually observed energy change         ....    -0.000013172
Ratio of predicted to observed change   ....     1.002532722
New trust radius                        ....     0.675000000

                                .--------------------.
          ----------------------|Geometry convergence|-------------------------
          Item                value                   Tolerance       Converged
          ---------------------------------------------------------------------
          Energy change      -0.0000131717            0.0000050000      NO
          RMS gradient        0.0000302744            0.0001000000      YES
          MAX gradient        0.0000881078            0.0003000000      YES
          RMS step            0.0000799988            0.0020000000      YES
          MAX step            0.0002388376            0.0040000000      YES
[...]
     e01493. DOI: 10.1002/wcms.1493
   
   for GFN2-xTB:
   * C. Bannwarth, S. Ehlert and S. Grimme., J. Chem. Theory Comput., 2019,
     15, 1652-1671. DOI: 10.1021/acs.jctc.8b01176
   for GFN1-xTB:
   * S. Grimme, C. Bannwarth, P. Shushkov, J. Chem. Theory Comput., 2017,
     13, 1989-2009. DOI: 10.1021/acs.jctc.7b00118
   for GFN0-xTB:
   * P. Pracht, E. Caldeweyher, S. Ehlert, S. Grimme, ChemRxiv, 2019, preprint.
     DOI: 10.26434/chemrxiv.8326202.v1
   for GFN-FF:
   * S. Spicher and S. Grimme, Angew. Chem. Int. Ed., 2020, 59, 15665-15673.
     DOI: 10.1002/anie.202004239
   
   for ALPB and GBSA implicit solvation:
   * S. Ehlert, M. Stahn, S. Spicher, S. Grimme, J. Chem. Theory Comput.,
     2021, 17, 4250-4261. DOI: 10.1021/acs.jctc.1c00471
   
   for ddCOSMO and CPCM-X implicit solvation:
   * M. Stahn, S. Ehlert, S. Grimme, J. Phys. Chem. A,
     2023, XX, XXXX-XXXX. DOI: 10.1021/acs.jpca.3c04382
   
   for DFT-D4:
   * E. Caldeweyher, C. Bannwarth and S. Grimme, J. Chem. Phys., 2017,
     147, 034112. DOI: 10.1063/1.4993215
   * E. Caldeweyher, S. Ehlert, A. Hansen, H. Neugebauer, S. Spicher,
     C. Bannwarth and S. Grimme, J. Chem. Phys., 2019, 150, 154122.
     DOI: 10.1063/1.5090222
   * E. Caldeweyher, J.-M. Mewes, S. Ehlert and S. Grimme, Phys. Chem. Chem. Phys.
     2020, 22, 8499-8512. DOI: 10.1039/D0CP00502A
   
   for sTDA-xTB:
   * S. Grimme and C. Bannwarth, J. Chem. Phys., 2016, 145, 054103.
     DOI: 10.1063/1.4959605
   
   in the mass-spec context:
   * V. Asgeirsson, C. Bauer and S. Grimme, Chem. Sci., 2017, 8, 4879.
     DOI: 10.1039/c7sc00601b
   * J. Koopman and S. Grimme, ACS Omega 2019, 4, 12, 15120-15133.
     DOI: 10.1021/acsomega.9b02011
   
   for metadynamics refer to:
   * S. Grimme, J. Chem. Theory Comput., 2019, 155, 2847-2862
     DOI: 10.1021/acs.jctc.9b00143
   
   for SPH calculations refer to:
   * S. Spicher and S. Grimme, J. Chem. Theory Comput., 2021, 17, 1701-1714
     DOI: 10.1021/acs.jctc.0c01306
   
   for ONIOM refer to:
   * C. Plett, A. Katbashev, S. Ehlert, S. Grimme, M. Bursch,
     Phys. Chem. Chem. Phys., 2023, 25, 17860-17868. DOI: 10.1039/D3CP02178E
   
   for DIPRO refer to:
   * J. Kohn, N. Gildemeister, S. Grimme, D. Fazzi, A. Hansen,
     J. Chem. Phys., 2023, just accepted.
   
   for PTB refer to:
   * S. Grimme, M. Mueller, A. Hansen, J. Chem. Phys., 2023, 158, 124111.
     DOI: 10.1063/5.0137838
   
   with help from (in alphabetical order)
   P. Atkinson, C. Bannwarth, F. Bohle, G. Brandenburg, E. Caldeweyher
   M. Checinski, S. Dohm, S. Ehlert, S. Ehrlich, I. Gerasimov, C. Hölzer
   A. Katbashev, J. Kohn, J. Koopman, C. Lavigne, S. Lehtola, F. März, M. Müller,
   F. Musil, H. Neugebauer, J. Pisarek, C. Plett, P. Pracht, F. Pultar,
   J. Seibert, P. Shushkov, S. Spicher, M. Stahn, M. Steiner, T. Strunk,
   J. Stückrath, T. Rose, and J. Unsleber
   
 * started run on 2025/02/15 at 11:11:45.557     
   ID    Z sym.   atoms
    1    6 C      1-6
    2    1 H      7-12

           -------------------------------------------------
          |                Calculation Setup                |
           -------------------------------------------------

          program call               : /mnt/d/orca/otool_xtb goat_XTB.xyz --grad -c 0 -u 0 -P 4 --namespace goat --input goat_XTB.input.tmp --acc 0.200000
          calculation namespace      : goat
          coordinate file            : goat_XTB.xyz
          omp threads                :                     4


           -------------------------------------------------
          |                 G F N 2 - x T B                 |
           -------------------------------------------------

        Reference                      10.1021/acs.jctc.8b01176
      * Hamiltonian:
        H0-scaling (s, p, d)           1.850000    2.230000    2.230000
        zeta-weighting                 0.500000
      * Dispersion:
        s8                             2.700000
        a1                             0.520000
        a2                             5.000000
        s9                             5.000000
      * Repulsion:
        kExp                           1.500000    1.000000
        rExp                           1.000000
      * Coulomb:
        alpha                          2.000000
        third order                    shell-resolved
        anisotropic                    true
        a3                             3.000000
        a5                             4.000000
        cn-shift                       1.200000
        cn-exp                         4.000000
        max-rad                        5.000000

q/qsh data taken from xtbrestart
CAMM data taken from xtbrestart

          ...................................................
          :                      SETUP                      :
          :.................................................:
          :  # basis functions                  30          :
          :  # atomic orbitals                  30          :
          :  # shells                           18          :
          :  # electrons                        30          :
          :  max. iterations                   250          :
          :  Hamiltonian                  GFN2-xTB          :
          :  restarted?                       true          :
          :  GBSA solvation                  false          :
          :  PC potential                    false          :
          :  electronic temp.          300.0000000     K    :
          :  accuracy                    0.2000000          :
          :  -> integral cutoff          0.3198970E+02      :
          :  -> integral neglect         0.2000000E-08      :
          :  -> SCF convergence          0.2000000E-06 Eh   :
          :  -> wf. convergence          0.2000000E-04 e    :
          :  Broyden damping             0.4000000          :
          :  net charge                          0          :
          :  unpaired electrons                  0          :
          ...................................................

 iter      E             dE          RMSdq      gap      omega  full diag
   1    -16.1965528 -0.161966E+02  0.696E-05    4.93       0.0  T
   2    -16.1965528 -0.244071E-11  0.413E-05    4.93     698.8  T
   3    -16.1965528 -0.746070E-13  0.596E-06    4.93    4843.8  T

   *** convergence criteria satisfied after 3 iterations ***

         #    Occupation            Energy/Eh            Energy/eV
      -------------------------------------------------------------
         1        2.0000           -0.6416596             -17.4604
       ...           ...                  ...                  ...
         9        2.0000           -0.4763511             -12.9622
        10        2.0000           -0.4763510             -12.9622
        11        2.0000           -0.4747591             -12.9189
        12        2.0000           -0.4213968             -11.4668
        13        2.0000           -0.4213967             -11.4668
        14        2.0000           -0.4025279             -10.9533
        15        2.0000           -0.4025279             -10.9533 (HOMO)
        16                         -0.2211936              -6.0190 (LUMO)
        17                         -0.2211936              -6.0190
        18                         -0.0899160              -2.4467
        19                          0.1179995               3.2109
        20                          0.1377062               3.7472
       ...                                ...                  ...
        30                          0.6741358              18.3442
      -------------------------------------------------------------
                  HL-Gap            0.1813343 Eh            4.9344 eV
             Fermi-level           -0.3118607 Eh           -8.4862 eV

 SCC (total)                   0 d,  0 h,  0 min,  0.306 sec
 SCC setup                      ...        0 min,  0.057 sec ( 18.621%)
 Dispersion                     ...        0 min,  0.010 sec (  3.164%)
 classical contributions        ...        0 min,  0.000 sec (  0.017%)
 integral evaluation            ...        0 min,  0.009 sec (  2.972%)
 iterations                     ...        0 min,  0.193 sec ( 63.206%)
 molecular gradient             ...        0 min,  0.024 sec (  7.742%)
 printout                       ...        0 min,  0.013 sec (  4.263%)

         :::::::::::::::::::::::::::::::::::::::::::::::::::::
         ::                     SUMMARY                     ::
         :::::::::::::::::::::::::::::::::::::::::::::::::::::
         :: total energy             -15.879640657441 Eh    ::
         :: gradient norm              0.000000337372 Eh/a0 ::
         :: HOMO-LUMO gap              4.934356667709 eV    ::
         ::.................................................::
         :: SCC energy               -16.196546057494 Eh    ::
         :: -> isotropic ES            0.000791368253 Eh    ::
         :: -> anisotropic ES          0.002517663419 Eh    ::
         :: -> anisotropic XC          0.012388837653 Eh    ::
         :: -> dispersion             -0.008019555830 Eh    ::
         :: repulsion energy           0.316905400053 Eh    ::
         :: add. restraining           0.000000000000 Eh    ::
         :: total charge              -0.000000000000 e     ::
         :::::::::::::::::::::::::::::::::::::::::::::::::::::


Property printout bound to 'properties.out'

           -------------------------------------------------
          | TOTAL ENERGY              -15.879640657441 Eh   |
          | GRADIENT NORM               0.000000337372 Eh/α |
          | HOMO-LUMO GAP               4.934356667709 eV   |
           -------------------------------------------------

------------------------------------------------------------------------
 * finished run on 2025/02/15 at 11:11:46.590     
------------------------------------------------------------------------
 total:
 * wall-time:     0 d,  0 h,  0 min,  0.967 sec
 *  cpu-time:     0 d,  0 h,  0 min,  2.434 sec
 * ratio c/w:     2.516 speedup
 SCF:
 * wall-time:     0 d,  0 h,  0 min,  0.327 sec
 *  cpu-time:     0 d,  0 h,  0 min,  0.971 sec
 * ratio c/w:     2.967 speedup


-------------------------   --------------------
FINAL SINGLE POINT ENERGY       -15.879640657440
-------------------------   --------------------


-------------
DIPOLE MOMENT
-------------
                                X             Y             Z
Total Dipole Moment    :     -0.00000       0.00000      -0.00000
                        -----------------------------------------
Magnitude (a.u.)       :      0.00000
Magnitude (Debye)      :      0.00000

                                *** OPTIMIZATION RUN DONE ***

		     ------------------------------
			                   _   
			                  | |  
			  __ _  ___   __ _| |_ 
			 / _` |/ _ \ / _` | __|
			| (_| | (_) | (_| | |_ 
			 \__, |\___/ \__,_|\__|
			 __/ |                
			|___/                 

		      A Global Optimizer Algorithm
		     ------------------------------

Global parameters
-----------------
  GOAT version                               ... default
  Minimum global steps                       ... 3
  Number of base workers                     ... 4
  Split workers by                           ... 2
  Final number of workers                    ... 8
  Number of available CPUs                   ... 4
  Parameter list (worker : temperature)      ...  0 : 2903.97,  1 : 1451.98, 
                                                  2 :  725.99,  3 :  363.00, 
                                                  4 : 2903.97,  5 : 1451.98, 
                                                  6 :  725.99,  7 :  363.00 
  GradComp (mean : sigma)                    ... 1.00 : 0.50
  Number of fragments                        ... 1
  Number of atoms                            ... 12
  Flexibility parameter                      ... 0.50
  Optimizations per global step              ... 120
  Optimizations per worker                   ... 15
  *Reached the min. opt. per worker: max(flex * NAtoms, 15) = 15

Filtering criteria
------------------
  RMSD                                       ... 0.125 Angs (atom. pos.)
  EnDiff                                     ... 0.100 kcal/mol
  RotConst                                   ... 1.00-2.50 %
  Maximum Conf. Energy                       ... 6.000 kcal/mol

Thermodynamics
--------------
  Ensemble temperature                       ... 298.15 K
  Degeneracy of conformers                   ... 1
  *No rotamers will be included in Gconf

------------------------------------------------------------------------------
   Iter  MinTemp     MaxEn       GradComp    NOpt   NProcs    Output
------------------------------------------------------------------------------
List of participating nodes    ...  goat.goat.0.hostnames

   1     1451.98     36.00    1.00 : 0.50      15        1    goat.goat.0.1.out
   3      363.00     36.00    1.00 : 0.50      15        1    goat.goat.0.3.out
   2      725.99     36.00    1.00 : 0.50      15        1    goat.goat.0.2.out
   0     2903.97     36.00    1.00 : 0.50      15        1    goat.goat.0.0.out
   4     2903.97     36.00    1.00 : 0.50      15        1    goat.goat.0.4.out
   5     1451.98     36.00    1.00 : 0.50      15        1    goat.goat.0.5.out
   6      725.99     36.00    1.00 : 0.50      15        1    goat.goat.0.6.out
   7      363.00     36.00    1.00 : 0.50      15        1    goat.goat.0.7.out

			     GOAT Global Iter 1
		Iter    Min En       Sconf       Gconf   
		        Hartree      cal/(molK)  kcal/mol
		=========================================

		   1    -15.879641   0.000       0.000

List of participating nodes    ...  goat.goat.1.hostnames

   0     2903.97     36.00    1.00 : 0.50      15        1    goat.goat.1.0.out
   3      363.00     36.00    1.00 : 0.50      15        1    goat.goat.1.3.out
   2      725.99     36.00    1.00 : 0.50      15        1    goat.goat.1.2.out
   1     1451.98     36.00    1.00 : 0.50      15        1    goat.goat.1.1.out
   4     2903.97     36.00    1.00 : 0.50      15        1    goat.goat.1.4.out
   5     1451.98     36.00    1.00 : 0.50      15        1    goat.goat.1.5.out
   6      725.99     36.00    1.00 : 0.50      15        1    goat.goat.1.6.out
   7      363.00     36.00    1.00 : 0.50      15        1    goat.goat.1.7.out

			     GOAT Global Iter 2
		Iter    Min En       Sconf       Gconf   
		        Hartree      cal/(molK)  kcal/mol
		=========================================

		   1    -15.879641   0.000       0.000
		   2    -15.879641   0.000       0.000

List of participating nodes    ...  goat.goat.2.hostnames

   1     1451.98     36.00    1.00 : 0.50      15        1    goat.goat.2.1.out
   0     2903.97     36.00    1.00 : 0.50      15        1    goat.goat.2.0.out
   3      363.00     36.00    1.00 : 0.50      15        1    goat.goat.2.3.out
   2      725.99     36.00    1.00 : 0.50      15        1    goat.goat.2.2.out
   4     2903.97     36.00    1.00 : 0.50      15        1    goat.goat.2.4.out
   5     1451.98     36.00    1.00 : 0.50      15        1    goat.goat.2.5.out
   6      725.99     36.00    1.00 : 0.50      15        1    goat.goat.2.6.out
   7      363.00     36.00    1.00 : 0.50      15        1    goat.goat.2.7.out

			     GOAT Global Iter 3
		Iter    Min En       Sconf       Gconf   
		        Hartree      cal/(molK)  kcal/mol
		=========================================

		   1    -15.879641   0.000       0.000
		   2    -15.879641   0.000       0.000
		   3    -15.879641   0.000       0.000

		Global minimum found!
		Writing structure to goat.globalminimum.xyz

		# Final ensemble info #
		Conformer     Energy     Degen.   % total   % cumul.  
		              (kcal/mol)
		------------------------------------------------------
		        0     0.000	     1     100.00     100.00

		Conformers below 3 kcal/mol: 1
		Lowest energy conformer    : -15.879641 Eh
		Sconf at 298.15 K          :  0.00 cal/(molK)
		Gconf at 298.15 K          : 0.00 kcal/mol

		Writing final ensemble to goat.finalensemble.xyz

--------------------------------
SUGGESTED CITATIONS FOR THIS RUN
--------------------------------

Below you find a list of papers that are relevant to this ORCA run
We neither can nor want to force you to cite these papers, but we appreciate if you do
You receive ORCA, which is the product of decades of hard work by many enthusiastic individuals, for free
The only thing we kindly ask in return is that you cite our papers,
We deeply appreciate it, if you show your appreciation for ORCA by not just citing the generic ORCA reference.

Please note that relegating all ORCA citations to the supporting information does *not* help us.
SI sections are not indexed - citations you put there will not count into any citation statistics
But we need these citations in order to attract the funding resources that allow us to do what we are doing

Therefore, if you are a happy ORCA user, please consider citing a few of the papers listed below in the main body of your paper

In addition to the list printed below, the program has created the file goat.bibtex that contains the list in bibtex format
You can import this file easily into all common literature databanks and citation aid programs


List of essential papers. We consider these as the minimum necessary citations

  1. Bannwarth,C.; Ehlert,S.; Grimme,S.
     GFN2-xTB—An Accurate and Broadly Parametrized Self-Consistent Tight-Binding Quantum Chemical Method with Multipole Electrostatics and Density-Dependent Dispersion Contributions
     J. Chem. Theory Comput., 2019 15(3)1652-1671
     doi.org/10.1021/acs.jctc.8b01176
  2. Neese,F.
     Software update: the ORCA program system, version 5.0
     WIRES Comput. Molec. Sci., 2022 12(1)e1606
     doi.org/10.1002/wcms.1606

List of papers to cite with high priority. The work reported in these papers was absolutely
necessary for this run to complete.
Our perspective: the developers of density functionals and basis sets usually get cited in chemistry papers
Good! But without the algorithms to do something with them, the functionals or basis sets would not do anything.
Hence, in our opinion, the algorithm design and method developments papers are equally worthy of getting cited

  1. Bannwarth,C.; Caldeweyher,E.; Ehlert,S.; Hansen,A.; Pracht,P.; Seibert,J.; Spicher,S.; Grimme,S.
     Extended tight-binding quantum chemistry methods
     WIRES Comput. Molec. Sci., 2020 11(2)e1493
     doi.org/10.1002/wcms.1493

List of suggested additional citations. These are papers that are important in the 'surrounding' of 
of this run, or papers that preceded the highly important papers. If you like your results we are grateful for a citation.

  1. Neese,F.
     The ORCA program system
     WIRES Comput. Molec. Sci., 2012 2(1)73-78
     doi.org/10.1002/wcms.81
  2. Neese,F.
     Software update: the ORCA program system, version 4.0
     WIRES Comput. Molec. Sci., 2018 8(1)1-6
     doi.org/10.1002/wcms.1327
  3. Neese,F.; Wennmohs,F.; Becker,U.; Riplinger,C.
     The ORCA quantum chemistry program package
     J. Chem. Phys., 2020 152 Art. No. L224108
     doi.org/10.1063/5.0004608

List of optional additional citations

  1. Neese,F.
     Approximate second-order SCF convergence for spin unrestricted wavefunctions
     Chem. Phys. Lett., 2000 325(1-3)93-98
     doi.org/10.1016/s0009-2614(00)00662-x

Timings for individual modules:

Sum of individual times          ...     2670.949 sec (=  44.516 min)
Geometry relaxation              ...        0.822 sec (=   0.014 min)   0.0 %
GOAT                             ...     2661.026 sec (=  44.350 min)  99.6 %
XTB module                       ...        9.101 sec (=   0.152 min)   0.3 %
                             ****ORCA TERMINATED NORMALLY****
TOTAL RUN TIME: 0 days 0 hours 44 minutes 38 seconds 656 msec
