X=H                                                                     
SP        RMP2-FC                                                     6-311++G(d,p)       
Number of atoms                            I               12
Info1-9                                    I   N=           9
          21          20           0           0           0         110
           1           2           1
Charge                                     I                0
Multiplicity                               I                1
Number of electrons                        I               50
Number of alpha electrons                  I               25
Number of beta electrons                   I               25
Number of basis functions                  I              189
Number of independent functions            I              189
Number of point charges in /Mol/           I                0
Number of translation vectors              I                0
Atomic numbers                             I   N=          12
           6           6           6           6           6           6
           9           1           1           1           1           1
Nuclear charges                            R   N=          12
  6.00000000E+00  6.00000000E+00  6.00000000E+00  6.00000000E+00  6.00000000E+00
  6.00000000E+00  9.00000000E+00  1.00000000E+00  1.00000000E+00  1.00000000E+00
  1.00000000E+00  1.00000000E+00
Current cartesian coordinates              R   N=          36
  2.29754054E+00  4.91290773E-01  0.00000000E+00  2.28044608E+00 -2.14353756E+00
  0.00000000E+00  0.00000000E+00 -3.46415766E+00  0.00000000E+00 -2.28044608E+00
 -2.14353756E+00  0.00000000E+00 -2.29754054E+00  4.91290773E-01  0.00000000E+00
  0.00000000E+00  1.74952533E+00  0.00000000E+00  0.00000000E+00  4.31408986E+00
  0.00000000E+00  0.00000000E+00 -5.51147576E+00  0.00000000E+00  4.04180138E+00
  1.56101948E+00  0.00000000E+00 -4.04180138E+00  1.56101948E+00  0.00000000E+00
  4.05778844E+00 -3.16130824E+00  0.00000000E+00 -4.05778844E+00 -3.16130824E+00
  0.00000000E+00
Force Field                                I                0
Int Atom Types                             I   N=          12
           0           0           0           0           0           0
           0           0           0           0           0           0
MM charges                                 R   N=          12
  0.00000000E+00  0.00000000E+00  0.00000000E+00  0.00000000E+00  0.00000000E+00
  0.00000000E+00  0.00000000E+00  0.00000000E+00  0.00000000E+00  0.00000000E+00
  0.00000000E+00  0.00000000E+00
Integer atomic weights                     I   N=          12
          12          12          12          12          12          12
          19           1           1           1           1           1
Real atomic weights                        R   N=          12
  1.20000000E+01  1.20000000E+01  1.20000000E+01  1.20000000E+01  1.20000000E+01
  1.20000000E+01  1.89984032E+01  1.00782504E+00  1.00782504E+00  1.00782504E+00
  1.00782504E+00  1.00782504E+00
Atom fragment info                         I   N=          12
           0           0           0           0           0           0
           0           0           0           0           0           0
Atom residue num                           I   N=          12
           0           0           0           0           0           0
           0           0           0           0           0           0
Nuclear spins                              I   N=          12
           0           0           0           0           0           0
           1           1           1           1           1           1
Nuclear ZEff                               R   N=          12
 -3.60000000E+00 -3.60000000E+00 -3.60000000E+00 -3.60000000E+00 -3.60000000E+00
 -3.60000000E+00 -6.75000000E+00 -1.00000000E+00 -1.00000000E+00 -1.00000000E+00
 -1.00000000E+00 -1.00000000E+00
Nuclear ZNuc                               R   N=          12
  6.00000000E+00  6.00000000E+00  6.00000000E+00  6.00000000E+00  6.00000000E+00
  6.00000000E+00  9.00000000E+00  1.00000000E+00  1.00000000E+00  1.00000000E+00
  1.00000000E+00  1.00000000E+00
Nuclear QMom                               R   N=          12
  0.00000000E+00  0.00000000E+00  0.00000000E+00  0.00000000E+00  0.00000000E+00
  0.00000000E+00  0.00000000E+00  0.00000000E+00  0.00000000E+00  0.00000000E+00
  0.00000000E+00  0.00000000E+00
Nuclear GFac                               R   N=          12
  0.00000000E+00  0.00000000E+00  0.00000000E+00  0.00000000E+00  0.00000000E+00
  0.00000000E+00  2.62886700E+00  2.79284600E+00  2.79284600E+00  2.79284600E+00
  2.79284600E+00  2.79284600E+00
MicOpt                                     I   N=          12
          -1          -1          -1          -1          -1          -1
          -1          -1          -1          -1          -1          -1
Number of contracted shells                I               67
Number of primitive shells                 I              126
Pure/Cartesian d shells                    I                0
Pure/Cartesian f shells                    I                0
Highest angular momentum                   I                2
Largest degree of contraction              I                6
Shell types                                I   N=          67
           0          -1          -1          -1          -1          -2
           0          -1          -1          -1          -1          -2
           0          -1          -1          -1          -1          -2
           0          -1          -1          -1          -1          -2
           0          -1          -1          -1          -1          -2
           0          -1          -1          -1          -1          -2
           0          -1          -1          -1          -1          -2
           0           0           0           0           1           0
           0           0           0           1           0           0
           0           0           1           0           0           0
           0           1           0           0           0           0
           1
Number of primitives per shell             I   N=          67
           6           3           1           1           1           1
           6           3           1           1           1           1
           6           3           1           1           1           1
           6           3           1           1           1           1
           6           3           1           1           1           1
           6           3           1           1           1           1
           6           3           1           1           1           1
           3           1           1           1           1           3
           1           1           1           1           3           1
           1           1           1           3           1           1
           1           1           3           1           1           1
           1
Shell to atom map                          I   N=          67
           1           1           1           1           1           1
           2           2           2           2           2           2
           3           3           3           3           3           3
           4           4           4           4           4           4
           5           5           5           5           5           5
           6           6           6           6           6           6
           7           7           7           7           7           7
           8           8           8           8           8           9
           9           9           9           9          10          10
          10          10          10          11          11          11
          11          11          12          12          12          12
          12
Primitive exponents                        R   N=         126
  4.56324000E+03  6.82024000E+02  1.54973000E+02  4.44553000E+01  1.30290000E+01
  1.82773000E+00  2.09642000E+01  4.80331000E+00  1.45933000E+00  4.83456000E-01
  1.45585000E-01  4.38000000E-02  6.26000000E-01  4.56324000E+03  6.82024000E+02
  1.54973000E+02  4.44553000E+01  1.30290000E+01  1.82773000E+00  2.09642000E+01
  4.80331000E+00  1.45933000E+00  4.83456000E-01  1.45585000E-01  4.38000000E-02
  6.26000000E-01  4.56324000E+03  6.82024000E+02  1.54973000E+02  4.44553000E+01
  1.30290000E+01  1.82773000E+00  2.09642000E+01  4.80331000E+00  1.45933000E+00
  4.83456000E-01  1.45585000E-01  4.38000000E-02  6.26000000E-01  4.56324000E+03
  6.82024000E+02  1.54973000E+02  4.44553000E+01  1.30290000E+01  1.82773000E+00
  2.09642000E+01  4.80331000E+00  1.45933000E+00  4.83456000E-01  1.45585000E-01
  4.38000000E-02  6.26000000E-01  4.56324000E+03  6.82024000E+02  1.54973000E+02
  4.44553000E+01  1.30290000E+01  1.82773000E+00  2.09642000E+01  4.80331000E+00
  1.45933000E+00  4.83456000E-01  1.45585000E-01  4.38000000E-02  6.26000000E-01
  4.56324000E+03  6.82024000E+02  1.54973000E+02  4.44553000E+01  1.30290000E+01
  1.82773000E+00  2.09642000E+01  4.80331000E+00  1.45933000E+00  4.83456000E-01
  1.45585000E-01  4.38000000E-02  6.26000000E-01  1.14271000E+04  1.72235000E+03
  3.95746000E+02  1.15139000E+02  3.36026000E+01  4.91901000E+00  5.54441000E+01
  1.26323000E+01  3.71756000E+00  1.16545000E+00  3.21892000E-01  1.07600000E-01
  1.75000000E+00  3.38650000E+01  5.09479000E+00  1.15879000E+00  3.25840000E-01
  1.02741000E-01  3.60000000E-02  7.50000000E-01  3.38650000E+01  5.09479000E+00
  1.15879000E+00  3.25840000E-01  1.02741000E-01  3.60000000E-02  7.50000000E-01
  3.38650000E+01  5.09479000E+00  1.15879000E+00  3.25840000E-01  1.02741000E-01
  3.60000000E-02  7.50000000E-01  3.38650000E+01  5.09479000E+00  1.15879000E+00
  3.25840000E-01  1.02741000E-01  3.60000000E-02  7.50000000E-01  3.38650000E+01
  5.09479000E+00  1.15879000E+00  3.25840000E-01  1.02741000E-01  3.60000000E-02
  7.50000000E-01
Contraction coefficients                   R   N=         126
  1.96665025E-03  1.52306019E-02  7.61269097E-02  2.60801033E-01  6.16462078E-01
  2.21006028E-01  1.14660081E-01  9.19999648E-01 -3.03068213E-03  1.00000000E+00
  1.00000000E+00  1.00000000E+00  1.00000000E+00  1.96665025E-03  1.52306019E-02
  7.61269097E-02  2.60801033E-01  6.16462078E-01  2.21006028E-01  1.14660081E-01
  9.19999648E-01 -3.03068213E-03  1.00000000E+00  1.00000000E+00  1.00000000E+00
  1.00000000E+00  1.96665025E-03  1.52306019E-02  7.61269097E-02  2.60801033E-01
  6.16462078E-01  2.21006028E-01  1.14660081E-01  9.19999648E-01 -3.03068213E-03
  1.00000000E+00  1.00000000E+00  1.00000000E+00  1.00000000E+00  1.96665025E-03
  1.52306019E-02  7.61269097E-02  2.60801033E-01  6.16462078E-01  2.21006028E-01
  1.14660081E-01  9.19999648E-01 -3.03068213E-03  1.00000000E+00  1.00000000E+00
  1.00000000E+00  1.00000000E+00  1.96665025E-03  1.52306019E-02  7.61269097E-02
  2.60801033E-01  6.16462078E-01  2.21006028E-01  1.14660081E-01  9.19999648E-01
 -3.03068213E-03  1.00000000E+00  1.00000000E+00  1.00000000E+00  1.00000000E+00
  1.96665025E-03  1.52306019E-02  7.61269097E-02  2.60801033E-01  6.16462078E-01
  2.21006028E-01  1.14660081E-01  9.19999648E-01 -3.03068213E-03  1.00000000E+00
  1.00000000E+00  1.00000000E+00  1.00000000E+00  1.80093016E-03  1.37419012E-02
  6.81334059E-02  2.33325020E-01  5.89086051E-01  2.99505026E-01  1.14536016E-01
  9.20512125E-01 -3.37804046E-03  1.00000000E+00  1.00000000E+00  1.00000000E+00
  1.00000000E+00  2.54938145E-02  1.90373109E-01  8.52161486E-01  1.00000000E+00
  1.00000000E+00  1.00000000E+00  1.00000000E+00  2.54938145E-02  1.90373109E-01
  8.52161486E-01  1.00000000E+00  1.00000000E+00  1.00000000E+00  1.00000000E+00
  2.54938145E-02  1.90373109E-01  8.52161486E-01  1.00000000E+00  1.00000000E+00
  1.00000000E+00  1.00000000E+00  2.54938145E-02  1.90373109E-01  8.52161486E-01
  1.00000000E+00  1.00000000E+00  1.00000000E+00  1.00000000E+00  2.54938145E-02
  1.90373109E-01  8.52161486E-01  1.00000000E+00  1.00000000E+00  1.00000000E+00
  1.00000000E+00
P(S=P) Contraction coefficients            R   N=         126
  0.00000000E+00  0.00000000E+00  0.00000000E+00  0.00000000E+00  0.00000000E+00
  0.00000000E+00  4.02486927E-02  2.37593957E-01  8.15853851E-01  1.00000000E+00
  1.00000000E+00  1.00000000E+00  0.00000000E+00  0.00000000E+00  0.00000000E+00
  0.00000000E+00  0.00000000E+00  0.00000000E+00  0.00000000E+00  4.02486927E-02
  2.37593957E-01  8.15853851E-01  1.00000000E+00  1.00000000E+00  1.00000000E+00
  0.00000000E+00  0.00000000E+00  0.00000000E+00  0.00000000E+00  0.00000000E+00
  0.00000000E+00  0.00000000E+00  4.02486927E-02  2.37593957E-01  8.15853851E-01
  1.00000000E+00  1.00000000E+00  1.00000000E+00  0.00000000E+00  0.00000000E+00
  0.00000000E+00  0.00000000E+00  0.00000000E+00  0.00000000E+00  0.00000000E+00
  4.02486927E-02  2.37593957E-01  8.15853851E-01  1.00000000E+00  1.00000000E+00
  1.00000000E+00  0.00000000E+00  0.00000000E+00  0.00000000E+00  0.00000000E+00
  0.00000000E+00  0.00000000E+00  0.00000000E+00  4.02486927E-02  2.37593957E-01
  8.15853851E-01  1.00000000E+00  1.00000000E+00  1.00000000E+00  0.00000000E+00
  0.00000000E+00  0.00000000E+00  0.00000000E+00  0.00000000E+00  0.00000000E+00
  0.00000000E+00  4.02486927E-02  2.37593957E-01  8.15853851E-01  1.00000000E+00
  1.00000000E+00  1.00000000E+00  0.00000000E+00  0.00000000E+00  0.00000000E+00
  0.00000000E+00  0.00000000E+00  0.00000000E+00  0.00000000E+00  3.54608874E-02
  2.37450915E-01  8.20457708E-01  1.00000000E+00  1.00000000E+00  1.00000000E+00
  0.00000000E+00  0.00000000E+00  0.00000000E+00  0.00000000E+00  0.00000000E+00
  0.00000000E+00  0.00000000E+00  0.00000000E+00  0.00000000E+00  0.00000000E+00
  0.00000000E+00  0.00000000E+00  0.00000000E+00  0.00000000E+00  0.00000000E+00
  0.00000000E+00  0.00000000E+00  0.00000000E+00  0.00000000E+00  0.00000000E+00
  0.00000000E+00  0.00000000E+00  0.00000000E+00  0.00000000E+00  0.00000000E+00
  0.00000000E+00  0.00000000E+00  0.00000000E+00  0.00000000E+00  0.00000000E+00
  0.00000000E+00  0.00000000E+00  0.00000000E+00  0.00000000E+00  0.00000000E+00
  0.00000000E+00
Coordinates of each shell                  R   N=         201
  2.29754054E+00  4.91290773E-01  0.00000000E+00  2.29754054E+00  4.91290773E-01
  0.00000000E+00  2.29754054E+00  4.91290773E-01  0.00000000E+00  2.29754054E+00
  4.91290773E-01  0.00000000E+00  2.29754054E+00  4.91290773E-01  0.00000000E+00
  2.29754054E+00  4.91290773E-01  0.00000000E+00  2.28044608E+00 -2.14353756E+00
  0.00000000E+00  2.28044608E+00 -2.14353756E+00  0.00000000E+00  2.28044608E+00
 -2.14353756E+00  0.00000000E+00  2.28044608E+00 -2.14353756E+00  0.00000000E+00
  2.28044608E+00 -2.14353756E+00  0.00000000E+00  2.28044608E+00 -2.14353756E+00
  0.00000000E+00  0.00000000E+00 -3.46415766E+00  0.00000000E+00  0.00000000E+00
 -3.46415766E+00  0.00000000E+00  0.00000000E+00 -3.46415766E+00  0.00000000E+00
  0.00000000E+00 -3.46415766E+00  0.00000000E+00  0.00000000E+00 -3.46415766E+00
  0.00000000E+00  0.00000000E+00 -3.46415766E+00  0.00000000E+00 -2.28044608E+00
 -2.14353756E+00  0.00000000E+00 -2.28044608E+00 -2.14353756E+00  0.00000000E+00
 -2.28044608E+00 -2.14353756E+00  0.00000000E+00 -2.28044608E+00 -2.14353756E+00
  0.00000000E+00 -2.28044608E+00 -2.14353756E+00  0.00000000E+00 -2.28044608E+00
 -2.14353756E+00  0.00000000E+00 -2.29754054E+00  4.91290773E-01  0.00000000E+00
 -2.29754054E+00  4.91290773E-01  0.00000000E+00 -2.29754054E+00  4.91290773E-01
  0.00000000E+00 -2.29754054E+00  4.91290773E-01  0.00000000E+00 -2.29754054E+00
  4.91290773E-01  0.00000000E+00 -2.29754054E+00  4.91290773E-01  0.00000000E+00
  0.00000000E+00  1.74952533E+00  0.00000000E+00  0.00000000E+00  1.74952533E+00
  0.00000000E+00  0.00000000E+00  1.74952533E+00  0.00000000E+00  0.00000000E+00
  1.74952533E+00  0.00000000E+00  0.00000000E+00  1.74952533E+00  0.00000000E+00
  0.00000000E+00  1.74952533E+00  0.00000000E+00  0.00000000E+00  4.31408986E+00
  0.00000000E+00  0.00000000E+00  4.31408986E+00  0.00000000E+00  0.00000000E+00
  4.31408986E+00  0.00000000E+00  0.00000000E+00  4.31408986E+00  0.00000000E+00
  0.00000000E+00  4.31408986E+00  0.00000000E+00  0.00000000E+00  4.31408986E+00
  0.00000000E+00  0.00000000E+00 -5.51147576E+00  0.00000000E+00  0.00000000E+00
 -5.51147576E+00  0.00000000E+00  0.00000000E+00 -5.51147576E+00  0.00000000E+00
  0.00000000E+00 -5.51147576E+00  0.00000000E+00  0.00000000E+00 -5.51147576E+00
  0.00000000E+00  4.04180138E+00  1.56101948E+00  0.00000000E+00  4.04180138E+00
  1.56101948E+00  0.00000000E+00  4.04180138E+00  1.56101948E+00  0.00000000E+00
  4.04180138E+00  1.56101948E+00  0.00000000E+00  4.04180138E+00  1.56101948E+00
  0.00000000E+00 -4.04180138E+00  1.56101948E+00  0.00000000E+00 -4.04180138E+00
  1.56101948E+00  0.00000000E+00 -4.04180138E+00  1.56101948E+00  0.00000000E+00
 -4.04180138E+00  1.56101948E+00  0.00000000E+00 -4.04180138E+00  1.56101948E+00
  0.00000000E+00  4.05778844E+00 -3.16130824E+00  0.00000000E+00  4.05778844E+00
 -3.16130824E+00  0.00000000E+00  4.05778844E+00 -3.16130824E+00  0.00000000E+00
  4.05778844E+00 -3.16130824E+00  0.00000000E+00  4.05778844E+00 -3.16130824E+00
  0.00000000E+00 -4.05778844E+00 -3.16130824E+00  0.00000000E+00 -4.05778844E+00
 -3.16130824E+00  0.00000000E+00 -4.05778844E+00 -3.16130824E+00  0.00000000E+00
 -4.05778844E+00 -3.16130824E+00  0.00000000E+00 -4.05778844E+00 -3.16130824E+00
  0.00000000E+00
Constraint Structure                       R   N=          36
  2.29754054E+00  4.91290773E-01  0.00000000E+00  2.28044608E+00 -2.14353756E+00
  0.00000000E+00  0.00000000E+00 -3.46415766E+00  0.00000000E+00 -2.28044608E+00
 -2.14353756E+00  0.00000000E+00 -2.29754054E+00  4.91290773E-01  0.00000000E+00
  0.00000000E+00  1.74952533E+00  0.00000000E+00  0.00000000E+00  4.31408986E+00
  0.00000000E+00  0.00000000E+00 -5.51147576E+00  0.00000000E+00  4.04180138E+00
  1.56101948E+00  0.00000000E+00 -4.04180138E+00  1.56101948E+00  0.00000000E+00
  4.05778844E+00 -3.16130824E+00  0.00000000E+00 -4.05778844E+00 -3.16130824E+00
  0.00000000E+00
Num ILSW                                   I              100
ILSW                                       I   N=         100
           0           0           0           0           2           0
           0           0           0           0           0          -1
           0           0           0           0           0           0
           0           0           0           0           0           0
           1           1           0           0           0           0
           0           0      100000           0          -1           0
           0           0           0           0           0           0
           0           0           0           1           0           0
           0           0           1           0           0           0
           0           0           4          41           0           0
           0           0           0           0           0           0
           0           0           0          12           0           0
           0           0           0           0           0           0
           0           0           0           0           0           0
           0           0           0           0           0           0
           0           0           0           0           0           0
           0           0           0           0
Num RLSW                                   I               41
RLSW                                       R   N=          41
  1.00000000E+00  1.00000000E+00  1.00000000E+00  1.00000000E+00  1.00000000E+00
  0.00000000E+00  0.00000000E+00  1.00000000E+00  0.00000000E+00  0.00000000E+00
  0.00000000E+00  0.00000000E+00  1.00000000E+00  0.00000000E+00  0.00000000E+00
  0.00000000E+00  0.00000000E+00  1.00000000E+00  0.00000000E+00  0.00000000E+00
  0.00000000E+00  0.00000000E+00  1.00000000E+00  0.00000000E+00  0.00000000E+00
  0.00000000E+00  0.00000000E+00  1.00000000E+00  0.00000000E+00  0.00000000E+00
  0.00000000E+00  0.00000000E+00  1.00000000E+00  0.00000000E+00  0.00000000E+00
  0.00000000E+00  0.00000000E+00  0.00000000E+00  1.00000000E+00  1.00000000E+00
  0.00000000E+00
MxBond                                     I                3
NBond                                      I   N=          12
           3           3           3           3           3           3
           1           1           1           1           1           1
IBond                                      I   N=          36
           2           6           9           1           3          11
           2           4           8           3           5          12
           4           6          10           1           5           7
           6           0           0           3           0           0
           1           0           0           5           0           0
           2           0           0           4           0           0
RBond                                      R   N=          36
  1.50000000E+00  1.50000000E+00  1.00000000E+00  1.50000000E+00  1.50000000E+00
  1.00000000E+00  1.50000000E+00  1.50000000E+00  1.00000000E+00  1.50000000E+00
  1.50000000E+00  1.00000000E+00  1.50000000E+00  1.50000000E+00  1.00000000E+00
  1.50000000E+00  1.50000000E+00  1.00000000E+00  1.00000000E+00  0.00000000E+00
  0.00000000E+00  1.00000000E+00  0.00000000E+00  0.00000000E+00  1.00000000E+00
  0.00000000E+00  0.00000000E+00  1.00000000E+00  0.00000000E+00  0.00000000E+00
  1.00000000E+00  0.00000000E+00  0.00000000E+00  1.00000000E+00  0.00000000E+00
  0.00000000E+00
Virial Ratio                               R      2.001127555312708E+00
SCF Energy                                 R     -3.296364373905175E+02
MP2 Energy                                 R     -3.306622671508698E+02
Total Energy                               R     -3.306622671508698E+02
Post-SCF wavefunction norm                 R      1.157882570424793E+00
RMS Density                                R      9.527282858533559E-09
External E-field                           R   N=          35
  0.00000000E+00  0.00000000E+00  0.00000000E+00  0.00000000E+00  0.00000000E+00
  0.00000000E+00  0.00000000E+00  0.00000000E+00  0.00000000E+00  0.00000000E+00
  0.00000000E+00  0.00000000E+00  0.00000000E+00  0.00000000E+00  0.00000000E+00
  0.00000000E+00  0.00000000E+00  0.00000000E+00  0.00000000E+00  0.00000000E+00
  0.00000000E+00  0.00000000E+00  0.00000000E+00  0.00000000E+00  0.00000000E+00
  0.00000000E+00  0.00000000E+00  0.00000000E+00  0.00000000E+00  0.00000000E+00
  0.00000000E+00  0.00000000E+00  0.00000000E+00  0.00000000E+00  0.00000000E+00
IOpCl                                      I                0
IROHF                                      I                0
Alpha Orbital Energies                     R   N=         189
 -2.63079374E+01 -1.13343539E+01 -1.12556696E+01 -1.12556087E+01 -1.12499206E+01
 -1.12499039E+01 -1.12460605E+01 -1.62284794E+00 -1.16943890E+00 -1.03716001E+00
 -1.02706897E+00 -8.59001116E-01 -8.43991697E-01 -7.46446585E-01 -7.00567841E-01
 -6.90197730E-01 -6.90173105E-01 -6.27623274E-01 -6.10322911E-01 -5.98231648E-01
 -5.35129905E-01 -5.12050202E-01 -5.12006136E-01 -3.54388702E-01 -3.44018035E-01
  3.92136007E-02  4.63736630E-02  5.23406354E-02  6.66382572E-02  7.19895594E-02
  9.71324012E-02  1.08374495E-01  1.21139859E-01  1.25775923E-01  1.47182164E-01
  1.51755136E-01  1.52640887E-01  1.59915547E-01  1.77787922E-01  1.78187276E-01
  1.88517201E-01  1.89052237E-01  1.93105115E-01  2.04794407E-01  2.07785557E-01
  2.08489142E-01  2.08899290E-01  2.08952698E-01  2.21555848E-01  2.27000376E-01
  2.46298863E-01  2.48174110E-01  2.76002899E-01  2.84117682E-01  2.99931680E-01
  3.04768248E-01  3.27291749E-01  3.58084189E-01  3.77578752E-01  3.99361751E-01
  4.18815863E-01  4.23384859E-01  4.25277044E-01  4.28303625E-01  4.61641234E-01
  4.75803990E-01  4.77677564E-01  5.13909433E-01  5.39710260E-01  5.39999110E-01
  5.74666529E-01  6.41673485E-01  6.57691122E-01  6.98574546E-01  7.06393853E-01
  7.11815334E-01  7.32068628E-01  7.45171325E-01  7.48607863E-01  7.48750003E-01
  7.82257259E-01  7.96444928E-01  8.06660514E-01  8.09068138E-01  8.75180989E-01
  8.96369726E-01  9.30987489E-01  9.40443876E-01  9.52626389E-01  9.84363268E-01
  9.89468028E-01  1.03159231E+00  1.03298330E+00  1.06008463E+00  1.06676337E+00
  1.09457577E+00  1.11018073E+00  1.12526158E+00  1.14292082E+00  1.19623751E+00
  1.21248656E+00  1.21714215E+00  1.22792770E+00  1.30625915E+00  1.33802909E+00
  1.37155063E+00  1.43961471E+00  1.48741068E+00  1.59071481E+00  1.68838589E+00
  1.69430446E+00  1.69858462E+00  1.76756083E+00  1.78226084E+00  1.80592447E+00
  1.81986527E+00  1.82738024E+00  1.83992141E+00  1.87505405E+00  1.89664328E+00
  1.90582636E+00  1.92868833E+00  2.00298949E+00  2.01064526E+00  2.03931062E+00
  2.09557036E+00  2.15596003E+00  2.21296238E+00  2.21409243E+00  2.21730318E+00
  2.23087613E+00  2.24574936E+00  2.27461044E+00  2.31919314E+00  2.33916601E+00
  2.36345824E+00  2.36600624E+00  2.39292951E+00  2.58228798E+00  2.61246675E+00
  2.64170537E+00  2.73011958E+00  2.76867539E+00  2.78051909E+00  2.83541756E+00
  2.93974543E+00  2.96311459E+00  2.99539509E+00  3.00424119E+00  3.02471835E+00
  3.02917645E+00  3.03672186E+00  3.06373611E+00  3.14806634E+00  3.17665193E+00
  3.17823818E+00  3.20180842E+00  3.26582624E+00  3.27830169E+00  3.30691258E+00
  3.46550949E+00  3.54904551E+00  3.58086548E+00  3.75788334E+00  3.77081832E+00
  3.89181855E+00  3.90251000E+00  4.02128989E+00  4.12512631E+00  4.22785634E+00
  4.28829386E+00  4.39345654E+00  4.43649728E+00  4.45087818E+00  4.54879068E+00
  4.56481482E+00  4.58428334E+00  5.26247046E+00  5.34744525E+00  6.96071137E+00
  7.08930025E+00  7.38920592E+00  2.47115358E+01  2.50713724E+01  2.51281596E+01
  2.52338654E+01  2.52488897E+01  2.53494177E+01  6.87974786E+01
Alpha MO coefficients                      R   N=       35721
  8.31915064E-07  1.05035963E-06  8.61161251E-06 -5.39398213E-06  6.39341926E-16
 -1.90202871E-05 -5.24972451E-05  2.25061637E-05 -1.29093774E-15  8.33935430E-04
 -4.98475599E-04 -5.16545941E-04  3.32024404E-15  1.13209098E-02 -2.72326113E-03
 -9.36110865E-04 -1.02743049E-14 -4.29240530E-06 -4.92294803E-17  1.28835501E-16
  5.61387682E-06 -2.63388210E-05  3.97465520E-07 -2.41491956E-06 -1.11862424E-06
  1.28325898E-06 -4.77297980E-16  3.06986513E-05  7.61757336E-06 -6.99707351E-07
  1.45321351E-15 -8.84826239E-04  3.87531648E-04 -3.50913491E-04 -3.83472405E-15
 -1.06959916E-02  2.53276025E-03 -1.13600810E-03  1.25731564E-14  4.50019583E-06
 -4.19079232E-16 -1.66845163E-16 -1.14447442E-06 -6.88060227E-06 -2.35094447E-07
  9.86824506E-07 -1.96996956E-15 -2.01350688E-06  4.92543007E-16 -2.24152539E-05
  1.03594283E-14  1.57583598E-05 -5.28246055E-16  6.32430661E-04 -1.97920933E-13
  4.60456212E-04  2.10623346E-15  1.14022750E-02  3.65800020E-12  2.47944724E-03
 -1.14539990E-14 -3.72472647E-06 -4.90780285E-16 -3.71032062E-16  7.63532096E-06
  1.98192118E-15  3.97465520E-07 -2.41491956E-06  1.11862424E-06  1.28325899E-06
  1.32423781E-17  3.06986513E-05 -7.61757336E-06 -6.99707388E-07 -7.44051171E-17
 -8.84826239E-04 -3.87531648E-04 -3.50913491E-04 -1.03088489E-15 -1.06959916E-02
 -2.53276025E-03 -1.13600810E-03  8.79585745E-15  4.50019583E-06 -8.62440969E-17
  3.25723500E-16 -1.14447441E-06  6.88060226E-06  8.31915064E-07  1.05035963E-06
 -8.61161251E-06 -5.39398213E-06 -2.02261296E-17 -1.90202871E-05  5.24972451E-05
  2.25061637E-05 -1.86733240E-16  8.33935429E-04  4.98475599E-04 -5.16545941E-04
  1.04000572E-15  1.13209098E-02  2.72326112E-03 -9.36110870E-04 -7.13674703E-15
 -4.29240531E-06  2.54298388E-16  7.77070489E-17  5.61387681E-06  2.63388209E-05
 -3.40782800E-06 -2.86147461E-05  1.98592457E-15  1.72067827E-05 -3.20090859E-16
  1.25805423E-04 -7.33068965E-15  2.08633707E-04  3.56271726E-16 -9.38474896E-04
  1.15631586E-13  6.44035297E-04 -2.24673981E-15 -1.36583985E-02 -4.12725591E-12
  1.83778639E-03  8.03233260E-15 -3.18669320E-05 -2.07503258E-16  9.84035585E-17
 -1.19083217E-04  4.64473018E-15  5.47671637E-01  4.73486471E-01 -2.35689366E-15
 -1.17315636E-03  4.32046393E-16  6.24130664E-03  7.06905719E-15  4.46599834E-04
 -8.38128652E-16 -1.12724286E-03 -2.44509583E-14 -1.06749628E-04  1.04554690E-15
  1.08998645E-03  6.85454743E-14 -7.69664350E-05 -6.12305352E-16  5.70398808E-05
  3.74070537E-17 -2.89439509E-18  1.22222288E-04  5.09303489E-16 -5.07787601E-06
  7.20724357E-05  1.13531250E-04  4.68453502E-04  4.75544310E-15  6.12970701E-06
 -3.44178356E-16 -6.24182178E-06  1.34219152E-04  2.16976047E-04  6.80309130E-04
 -1.50367723E-05 -8.25554790E-06 -8.33116359E-17 -6.24182178E-06  1.34219152E-04
  2.16976047E-04  6.80309130E-04  1.50367723E-05 -8.25554791E-06  1.89055043E-16
  3.11633736E-06 -4.75303042E-05 -1.75429392E-04 -6.24443377E-04  5.57454485E-06
  2.15456539E-06  3.31503002E-16  3.11633736E-06 -4.75303042E-05 -1.75429392E-04
 -6.24443377E-04 -5.57454485E-06  2.15456538E-06  1.59768061E-16  4.13444263E-03
  3.38189973E-03 -2.03546495E-04  9.87575984E-05  7.27396000E-16  2.44278412E-04
  7.04404796E-05  2.44870272E-05 -1.04641622E-15 -6.31616177E-05 -5.97178496E-05
 -2.20535181E-04  1.16681791E-15 -6.98808247E-03  7.70416031E-04  1.01542289E-03
 -5.50138724E-15  1.02172591E-04 -4.53443149E-16 -2.76252004E-16 -3.92057095E-06
 -4.90962490E-05  9.27543829E-06  6.54011348E-06  1.49487392E-05 -9.78193977E-06
 -7.43813034E-16 -2.15562135E-05 -4.77664634E-05  4.95577121E-05  8.76147731E-16
  1.26760512E-04 -2.92884476E-04  5.11045923E-06 -5.03372380E-16  5.41870459E-03
 -4.74293907E-04  1.09008982E-03  5.55354398E-15 -1.10610622E-05  3.82916136E-16
 -1.39470558E-16 -7.99655442E-06 -5.36547041E-05 -6.26527325E-05 -5.22429079E-05