 Entering Link 1 = Z:\home\jakler\g09\G09W\l1.exe PID=       288.
  
 Copyright (c) 1988,1990,1992,1993,1995,1998,2003,2009,2013,
            Gaussian, Inc.  All Rights Reserved.
  
 This is part of the Gaussian(R) 09 program.  It is based on
 the Gaussian(R) 03 system (copyright 2003, Gaussian, Inc.),
 the Gaussian(R) 98 system (copyright 1998, Gaussian, Inc.),
 the Gaussian(R) 94 system (copyright 1995, Gaussian, Inc.),
 the Gaussian 92(TM) system (copyright 1992, Gaussian, Inc.),
 the Gaussian 90(TM) system (copyright 1990, Gaussian, Inc.),
 the Gaussian 88(TM) system (copyright 1988, Gaussian, Inc.),
 the Gaussian 86(TM) system (copyright 1986, Carnegie Mellon
 University), and the Gaussian 82(TM) system (copyright 1983,
 Carnegie Mellon University). Gaussian is a federally registered
 trademark of Gaussian, Inc.
  
 This software contains proprietary and confidential information,
 including trade secrets, belonging to Gaussian, Inc.
  
 This software is provided under written license and may be
 used, copied, transmitted, or stored only in accord with that
 written license.
  
 The following legend is applicable only to US Government
 contracts under FAR:
  
                    RESTRICTED RIGHTS LEGEND
  
 Use, reproduction and disclosure by the US Government is
 subject to restrictions as set forth in subparagraphs (a)
 and (c) of the Commercial Computer Software - Restricted
 Rights clause in FAR 52.227-19.
  
 Gaussian, Inc.
 340 Quinnipiac St., Bldg. 40, Wallingford CT 06492
  
  
 ---------------------------------------------------------------
 Warning -- This program may not be used in any manner that
 competes with the business of Gaussian, Inc. or will provide
 assistance to any competitor of Gaussian, Inc.  The licensee
 of this program is prohibited from giving any competitor of
 Gaussian, Inc. access to this program.  By using this program,
 the user acknowledges that Gaussian, Inc. is engaged in the
 business of creating and licensing software in the field of
 computational chemistry and represents and warrants to the
 licensee that it is not a competitor of Gaussian, Inc. and that
 it will not use this program in any manner prohibited above.
 ---------------------------------------------------------------
  

 Cite this work as:
 Gaussian 09, Revision D.01,
 M. J. Frisch, G. W. Trucks, H. B. Schlegel, G. E. Scuseria, 
 M. A. Robb, J. R. Cheeseman, G. Scalmani, V. Barone, B. Mennucci, 
 G. A. Petersson, H. Nakatsuji, M. Caricato, X. Li, H. P. Hratchian, 
 A. F. Izmaylov, J. Bloino, G. Zheng, J. L. Sonnenberg, M. Hada, 
 M. Ehara, K. Toyota, R. Fukuda, J. Hasegawa, M. Ishida, T. Nakajima, 
 Y. Honda, O. Kitao, H. Nakai, T. Vreven, J. A. Montgomery, Jr., 
 J. E. Peralta, F. Ogliaro, M. Bearpark, J. J. Heyd, E. Brothers, 
 K. N. Kudin, V. N. Staroverov, T. Keith, R. Kobayashi, J. Normand, 
 K. Raghavachari, A. Rendell, J. C. Burant, S. S. Iyengar, J. Tomasi, 
 M. Cossi, N. Rega, J. M. Millam, M. Klene, J. E. Knox, J. B. Cross, 
 V. Bakken, C. Adamo, J. Jaramillo, R. Gomperts, R. E. Stratmann, 
 O. Yazyev, A. J. Austin, R. Cammi, C. Pomelli, J. W. Ochterski, 
 R. L. Martin, K. Morokuma, V. G. Zakrzewski, G. A. Voth, 
 P. Salvador, J. J. Dannenberg, S. Dapprich, A. D. Daniels, 
 O. Farkas, J. B. Foresman, J. V. Ortiz, J. Cioslowski, 
 and D. J. Fox, Gaussian, Inc., Wallingford CT, 2013.
 
 ******************************************
 Gaussian 09:  IA32W-G09RevD.01 24-Apr-2013
                07-Feb-2025 
 ******************************************
 %nprocshared=8
 Will use up to    8 processors via shared memory.
 %chk=/home/jakler/matheus/f.chk
 ------------------------------------
 #P MP2/6-311++G** nosymm Density=MP2
 ------------------------------------
 1/30=1,38=1/1;
 2/12=2,15=1,17=6,18=5,40=1/2;
 3/5=4,6=6,7=1111,11=9,16=1,25=1,30=1,71=1/1,2,3;
 4//1;
 5/5=2,38=5/2;
 8/6=4,10=2/1;
 9/15=1,16=-3/6;
 10/5=1,13=10,31=1/2;
 6/7=2,8=2,9=2,10=2,22=2/1;
 99/5=1,9=1/99;
 Leave Link    1 at Fri Feb 07 13:07:21 2025, MaxMem=           0 cpu:         0.0
 (Enter Z:\home\jakler\g09\G09W\l101.exe)
 ---
 X=H
 ---
 Symbolic Z-matrix:
 Charge =  0 Multiplicity = 1
 C                     1.21581   0.25998   0. 
 C                     1.20676  -1.13431   0. 
 C                     0.       -1.83315   0. 
 C                    -1.20676  -1.13431   0. 
 C                    -1.21581   0.25998   0. 
 C                     0.        0.92581   0. 
 F                     0.        2.28292   0. 
 H                     0.       -2.91655   0. 
 H                     2.13883   0.82606   0. 
 H                    -2.13883   0.82606   0. 
 H                     2.14729  -1.67289   0. 
 H                    -2.14729  -1.67289   0. 
 
 NAtoms=     12 NQM=       12 NQMF=       0 NMMI=      0 NMMIF=      0
                NMic=       0 NMicF=      0.
                    Isotopes and Nuclear Properties:
 (Nuclear quadrupole moments (NQMom) in fm**2, nuclear magnetic moments (NMagM)
  in nuclear magnetons)

  Atom         1           2           3           4           5           6           7           8           9          10
 IAtWgt=          12          12          12          12          12          12          19           1           1           1
 AtmWgt=  12.0000000  12.0000000  12.0000000  12.0000000  12.0000000  12.0000000  18.9984033   1.0078250   1.0078250   1.0078250
 NucSpn=           0           0           0           0           0           0           1           1           1           1
 AtZEff=   0.0000000   0.0000000   0.0000000   0.0000000   0.0000000   0.0000000   0.0000000   0.0000000   0.0000000   0.0000000
 NQMom=    0.0000000   0.0000000   0.0000000   0.0000000   0.0000000   0.0000000   0.0000000   0.0000000   0.0000000   0.0000000
 NMagM=    0.0000000   0.0000000   0.0000000   0.0000000   0.0000000   0.0000000   2.6288670   2.7928460   2.7928460   2.7928460
 AtZNuc=   6.0000000   6.0000000   6.0000000   6.0000000   6.0000000   6.0000000   9.0000000   1.0000000   1.0000000   1.0000000

  Atom        11          12
 IAtWgt=           1           1
 AtmWgt=   1.0078250   1.0078250
 NucSpn=           1           1
 AtZEff=   0.0000000   0.0000000
 NQMom=    0.0000000   0.0000000
 NMagM=    2.7928460   2.7928460
 AtZNuc=   1.0000000   1.0000000
 Leave Link  101 at Fri Feb 07 13:07:21 2025, MaxMem=    33554432 cpu:         0.0
 (Enter Z:\home\jakler\g09\G09W\l202.exe)
                          Input orientation:                          
 ---------------------------------------------------------------------
 Center     Atomic      Atomic             Coordinates (Angstroms)
 Number     Number       Type             X           Y           Z
 ---------------------------------------------------------------------
      1          6           0        1.215806    0.259980    0.000000
      2          6           0        1.206760   -1.134311    0.000000
      3          6           0        0.000000   -1.833153    0.000000
      4          6           0       -1.206760   -1.134311    0.000000
      5          6           0       -1.215806    0.259980    0.000000
      6          6           0        0.000000    0.925809    0.000000
      7          9           0        0.000000    2.282918    0.000000
      8          1           0        0.000000   -2.916547    0.000000
      9          1           0        2.138829    0.826056    0.000000
     10          1           0       -2.138829    0.826056    0.000000
     11          1           0        2.147289   -1.672892    0.000000
     12          1           0       -2.147289   -1.672892    0.000000
 ---------------------------------------------------------------------
                    Distance matrix (angstroms):
                    1          2          3          4          5
     1  C    0.000000
     2  C    1.394320   0.000000
     3  C    2.420618   1.394507   0.000000
     4  C    2.795152   2.413520   1.394507   0.000000
     5  C    2.431612   2.795152   2.420618   1.394320   0.000000
     6  C    1.386186   2.387544   2.758962   2.387544   1.386186
     7  F    2.360183   3.624048   4.116071   3.624048   2.360183
     8  H    3.401251   2.152356   1.083394   2.152356   3.401251
     9  H    1.082781   2.170666   3.412621   3.877629   3.402061
    10  H    3.402061   3.877629   3.412621   2.170666   1.082781
    11  H    2.145613   1.083819   2.153261   3.397016   3.878970
    12  H    3.878970   3.397016   2.153261   1.083819   2.145613
                    6          7          8          9         10
     6  C    0.000000
     7  F    1.357109   0.000000
     8  H    3.842356   5.199465   0.000000
     9  H    2.141154   2.587863   4.310646   0.000000
    10  H    2.141154   2.587863   4.310646   4.277658   0.000000
    11  H    3.371068   4.501032   2.481437   2.498963   4.961406
    12  H    3.371068   4.501032   2.481437   4.961406   2.498963
                   11         12
    11  H    0.000000
    12  H    4.294578   0.000000
 Symmetry turned off by external request.
 Stoichiometry    C6H5F
 Framework group  C2V[C2(HCCF),SGV(C4H4)]
 Deg. of freedom    11
 Full point group                 C2V     NOp   4
 Rotational constants (GHZ):      5.6821482      2.5624196      1.7660171
 Leave Link  202 at Fri Feb 07 13:07:21 2025, MaxMem=    33554432 cpu:         0.0
 (Enter Z:\home\jakler\g09\G09W\l301.exe)
 Standard basis: 6-311++G(d,p) (5D, 7F)
 Ernie: Thresh=  0.10000D-02 Tol=  0.10000D-05 Strict=F.
   189 basis functions,   297 primitive gaussians,   196 cartesian basis functions
    25 alpha electrons       25 beta electrons
       nuclear repulsion energy       269.2004701018 Hartrees.
 IExCor=    0 DFT=F Ex=HF Corr=None ExCW=0 ScaHFX=  1.000000
 ScaDFX=  1.000000  1.000000  1.000000  1.000000 ScalE2=  1.000000  1.000000
 IRadAn=      0 IRanWt=     -1 IRanGd=            0 ICorTp=0 IEmpDi=  4
 NAtoms=   12 NActive=   12 NUniq=   12 SFac= 1.00D+00 NAtFMM=   60 NAOKFM=F Big=F
 Integral buffers will be    262144 words long.
 Raffenetti 1 integral format.
 Two-electron integral symmetry is turned off.
 Leave Link  301 at Fri Feb 07 13:07:22 2025, MaxMem=    33554432 cpu:         0.0
 (Enter Z:\home\jakler\g09\G09W\l302.exe)
 NPDir=0 NMtPBC=     1 NCelOv=     1 NCel=       1 NClECP=     1 NCelD=      1
         NCelK=      1 NCelE2=     1 NClLst=     1 CellRange=     0.0.
 One-electron integrals computed using PRISM.
 NBasis=   189 RedAO= T EigKep=  1.62D-06  NBF=   189
 NBsUse=   189 1.00D-06 EigRej= -1.00D+00 NBFU=   189
 Leave Link  302 at Fri Feb 07 13:07:22 2025, MaxMem=    33554432 cpu:         0.0
 (Enter Z:\home\jakler\g09\G09W\l303.exe)
 DipDrv:  MaxL=1.
 Leave Link  303 at Fri Feb 07 13:07:22 2025, MaxMem=    33554432 cpu:         0.0
 (Enter Z:\home\jakler\g09\G09W\l401.exe)
 ExpMin= 3.60D-02 ExpMax= 1.14D+04 ExpMxC= 1.72D+03 IAcc=3 IRadAn=         5 AccDes= 0.00D+00
 Harris functional with IExCor=  205 and IRadAn=       5 diagonalized for initial guess.
 HarFok:  IExCor=  205 AccDes= 0.00D+00 IRadAn=         5 IDoV= 1 UseB2=F ITyADJ=14
 ICtDFT=  3500011 ScaDFX=  1.000000  1.000000  1.000000  1.000000
 FoFCou: FMM=F IPFlag=           0 FMFlag=      100000 FMFlg1=           0
         NFxFlg=           0 DoJE=T BraDBF=F KetDBF=T FulRan=T
         wScrn=  0.000000 ICntrl=     500 IOpCl=  0 I1Cent=   200000004 NGrid=           0
         NMat0=    1 NMatS0=      1 NMatT0=    0 NMatD0=    1 NMtDS0=    0 NMtDT0=    0
 Symmetry not used in FoFCou.
 Harris En= -329.953756682088    
 JPrj=0 DoOrth=F DoCkMO=F.
 Leave Link  401 at Fri Feb 07 13:07:24 2025, MaxMem=    33554432 cpu:         2.0
 (Enter Z:\home\jakler\g09\G09W\l502.exe)
 Closed shell SCF:
 Using DIIS extrapolation, IDIIS=  1040.
 Two-electron integral symmetry not used.
 IVT=      136345 IEndB=      136345 NGot=    33554432 MDV=    33473340
 LenX=    33473340 LenY=    33434483
 Requested convergence on RMS density matrix=1.00D-08 within 128 cycles.
 Requested convergence on MAX density matrix=1.00D-06.
 Requested convergence on             energy=1.00D-06.
 No special actions if energy rises.
 Fock matrices will be formed incrementally for  20 cycles.

 Cycle   1  Pass 0  IDiag  1:
 FoFJK:  IHMeth= 1 ICntrl=       0 DoSepK=F KAlg= 0 I1Cent=   0 FoldK=F
 IRaf= 980000000 NMat=   1 IRICut=       1 DoRegI=T DoRafI=F ISym2E= 0.
 FoFCou: FMM=F IPFlag=           0 FMFlag=      100000 FMFlg1=           0
         NFxFlg=           0 DoJE=F BraDBF=F KetDBF=F FulRan=T
         wScrn=  0.000000 ICntrl=       0 IOpCl=  0 I1Cent=           0 NGrid=           0
         NMat0=    1 NMatS0=      1 NMatT0=    0 NMatD0=    1 NMtDS0=    0 NMtDT0=    0
 Symmetry not used in FoFCou.
 E= -329.341943995699    
 DIIS: error= 6.55D-02 at cycle   1 NSaved=   1.
 NSaved= 1 IEnMin= 1 EnMin= -329.341943995699     IErMin= 1 ErrMin= 6.55D-02
 ErrMax= 6.55D-02  0.00D+00 EMaxC= 1.00D-01 BMatC= 5.92D-01 BMatP= 5.92D-01
 IDIUse=3 WtCom= 3.45D-01 WtEn= 6.55D-01
 Coeff-Com:  0.100D+01
 Coeff-En:   0.100D+01
 Coeff:      0.100D+01
 Gap=     0.508 Goal=   None    Shift=    0.000
 GapD=    0.508 DampG=2.000 DampE=0.500 DampFc=1.0000 IDamp=-1.
 RMSDP=6.08D-03 MaxDP=2.31D-01              OVMax= 1.62D-01

 Cycle   2  Pass 0  IDiag  1:
 RMSU=  6.08D-03    CP:  1.00D+00
 E= -329.589114042539     Delta-E=       -0.247170046840 Rises=F Damp=F
 DIIS: error= 2.24D-02 at cycle   2 NSaved=   2.
 NSaved= 2 IEnMin= 2 EnMin= -329.589114042539     IErMin= 2 ErrMin= 2.24D-02
 ErrMax= 2.24D-02  0.00D+00 EMaxC= 1.00D-01 BMatC= 4.94D-02 BMatP= 5.92D-01
 IDIUse=3 WtCom= 7.76D-01 WtEn= 2.24D-01
 Coeff-Com:  0.134D+00 0.866D+00
 Coeff-En:   0.000D+00 0.100D+01
 Coeff:      0.104D+00 0.896D+00
 Gap=     0.422 Goal=   None    Shift=    0.000
 RMSDP=4.14D-03 MaxDP=1.85D-01 DE=-2.47D-01 OVMax= 6.65D-02

 Cycle   3  Pass 0  IDiag  1:
 RMSU=  3.53D-03    CP:  9.74D-01  7.03D-01
 E= -329.629057806313     Delta-E=       -0.039943763774 Rises=F Damp=F
 DIIS: error= 6.98D-03 at cycle   3 NSaved=   3.
 NSaved= 3 IEnMin= 3 EnMin= -329.629057806313     IErMin= 3 ErrMin= 6.98D-03
 ErrMax= 6.98D-03  0.00D+00 EMaxC= 1.00D-01 BMatC= 7.62D-03 BMatP= 4.94D-02
 IDIUse=3 WtCom= 9.30D-01 WtEn= 6.98D-02
 Coeff-Com: -0.163D-01 0.258D+00 0.759D+00
 Coeff-En:   0.000D+00 0.000D+00 0.100D+01
 Coeff:     -0.151D-01 0.240D+00 0.775D+00
 Gap=     0.387 Goal=   None    Shift=    0.000
 RMSDP=1.57D-03 MaxDP=6.93D-02 DE=-3.99D-02 OVMax= 2.82D-02

 Cycle   4  Pass 0  IDiag  1:
 RMSU=  9.07D-04    CP:  9.47D-01  7.69D-01  8.60D-01
 E= -329.636193582119     Delta-E=       -0.007135775806 Rises=F Damp=F
 DIIS: error= 1.71D-03 at cycle   4 NSaved=   4.
 NSaved= 4 IEnMin= 4 EnMin= -329.636193582119     IErMin= 4 ErrMin= 1.71D-03
 ErrMax= 1.71D-03  0.00D+00 EMaxC= 1.00D-01 BMatC= 2.52D-04 BMatP= 7.62D-03
 IDIUse=3 WtCom= 9.83D-01 WtEn= 1.71D-02
 Coeff-Com: -0.759D-02 0.428D-01 0.209D+00 0.756D+00
 Coeff-En:   0.000D+00 0.000D+00 0.000D+00 0.100D+01
 Coeff:     -0.746D-02 0.421D-01 0.205D+00 0.760D+00
 Gap=     0.383 Goal=   None    Shift=    0.000
 RMSDP=3.57D-04 MaxDP=1.53D-02 DE=-7.14D-03 OVMax= 5.08D-03

 Cycle   5  Pass 0  IDiag  1:
 RMSU=  1.90D-04    CP:  9.53D-01  7.80D-01  9.00D-01  8.50D-01
 E= -329.636411627214     Delta-E=       -0.000218045095 Rises=F Damp=F
 DIIS: error= 5.51D-04 at cycle   5 NSaved=   5.
 NSaved= 5 IEnMin= 5 EnMin= -329.636411627214     IErMin= 5 ErrMin= 5.51D-04
 ErrMax= 5.51D-04  0.00D+00 EMaxC= 1.00D-01 BMatC= 1.27D-05 BMatP= 2.52D-04
 IDIUse=3 WtCom= 9.94D-01 WtEn= 5.51D-03
 Coeff-Com:  0.833D-03-0.194D-01-0.485D-01 0.597D-01 0.101D+01
 Coeff-En:   0.000D+00 0.000D+00 0.000D+00 0.000D+00 0.100D+01
 Coeff:      0.828D-03-0.192D-01-0.483D-01 0.594D-01 0.101D+01
 Gap=     0.383 Goal=   None    Shift=    0.000
 RMSDP=1.46D-04 MaxDP=4.89D-03 DE=-2.18D-04 OVMax= 2.37D-03

 Cycle   6  Pass 0  IDiag  1:
 RMSU=  4.59D-05    CP:  9.50D-01  7.79D-01  9.10D-01  9.23D-01  1.10D+00
 E= -329.636433933220     Delta-E=       -0.000022306006 Rises=F Damp=F
 DIIS: error= 1.54D-04 at cycle   6 NSaved=   6.
 NSaved= 6 IEnMin= 6 EnMin= -329.636433933220     IErMin= 6 ErrMin= 1.54D-04
 ErrMax= 1.54D-04  0.00D+00 EMaxC= 1.00D-01 BMatC= 1.14D-06 BMatP= 1.27D-05
 IDIUse=3 WtCom= 9.98D-01 WtEn= 1.54D-03
 Coeff-Com:  0.530D-03-0.477D-02-0.152D-01-0.473D-01 0.593D-01 0.101D+01
 Coeff-En:   0.000D+00 0.000D+00 0.000D+00 0.000D+00 0.000D+00 0.100D+01
 Coeff:      0.529D-03-0.476D-02-0.151D-01-0.472D-01 0.592D-01 0.101D+01
 Gap=     0.383 Goal=   None    Shift=    0.000
 RMSDP=4.90D-05 MaxDP=1.72D-03 DE=-2.23D-05 OVMax= 6.06D-04

 Cycle   7  Pass 0  IDiag  1:
 RMSU=  1.27D-05    CP:  9.49D-01  7.78D-01  9.13D-01  9.42D-01  1.18D+00
                    CP:  1.24D+00
 E= -329.636436521593     Delta-E=       -0.000002588373 Rises=F Damp=F
 DIIS: error= 6.63D-05 at cycle   7 NSaved=   7.
 NSaved= 7 IEnMin= 7 EnMin= -329.636436521593     IErMin= 7 ErrMin= 6.63D-05
 ErrMax= 6.63D-05  0.00D+00 EMaxC= 1.00D-01 BMatC= 2.07D-07 BMatP= 1.14D-06
 IDIUse=1 WtCom= 1.00D+00 WtEn= 0.00D+00
 Coeff-Com:  0.285D-04 0.539D-03 0.154D-02-0.152D-01-0.741D-01 0.176D+00
 Coeff-Com:  0.911D+00
 Coeff:      0.285D-04 0.539D-03 0.154D-02-0.152D-01-0.741D-01 0.176D+00
 Coeff:      0.911D+00
 Gap=     0.383 Goal=   None    Shift=    0.000
 RMSDP=1.06D-05 MaxDP=3.84D-04 DE=-2.59D-06 OVMax= 4.74D-04

 Cycle   8  Pass 0  IDiag  1:
 RMSU=  5.44D-06    CP:  9.49D-01  7.77D-01  9.14D-01  9.44D-01  1.20D+00
                    CP:  1.36D+00  1.24D+00
 E= -329.636437086651     Delta-E=       -0.000000565058 Rises=F Damp=F
 DIIS: error= 4.77D-05 at cycle   8 NSaved=   8.
 NSaved= 8 IEnMin= 8 EnMin= -329.636437086651     IErMin= 8 ErrMin= 4.77D-05
 ErrMax= 4.77D-05  0.00D+00 EMaxC= 1.00D-01 BMatC= 5.63D-08 BMatP= 2.07D-07
 IDIUse=1 WtCom= 1.00D+00 WtEn= 0.00D+00
 Coeff-Com: -0.130D-03 0.115D-02 0.433D-02 0.160D-01-0.494D-02-0.311D+00
 Coeff-Com: -0.461D-01 0.134D+01
 Coeff:     -0.130D-03 0.115D-02 0.433D-02 0.160D-01-0.494D-02-0.311D+00
 Coeff:     -0.461D-01 0.134D+01
 Gap=     0.383 Goal=   None    Shift=    0.000
 RMSDP=7.75D-06 MaxDP=2.45D-04 DE=-5.65D-07 OVMax= 3.67D-04

 Initial convergence to 1.0D-05 achieved.  Increase integral accuracy.
 Cycle   9  Pass 1  IDiag  1:
 E= -329.636437346194     Delta-E=       -0.000000259543 Rises=F Damp=F
 DIIS: error= 1.59D-05 at cycle   1 NSaved=   1.
 NSaved= 1 IEnMin= 1 EnMin= -329.636437346194     IErMin= 1 ErrMin= 1.59D-05
 ErrMax= 1.59D-05  0.00D+00 EMaxC= 1.00D-01 BMatC= 6.99D-09 BMatP= 6.99D-09
 IDIUse=1 WtCom= 1.00D+00 WtEn= 0.00D+00
 Coeff-Com:  0.100D+01
 Coeff:      0.100D+01
 Gap=     0.383 Goal=   None    Shift=    0.000
 RMSDP=7.75D-06 MaxDP=2.45D-04 DE=-2.60D-07 OVMax= 7.06D-05

 Cycle  10  Pass 1  IDiag  1:
 RMSU=  1.43D-06    CP:  1.00D+00
 E= -329.636437371382     Delta-E=       -0.000000025188 Rises=F Damp=F
 DIIS: error= 1.24D-05 at cycle   2 NSaved=   2.
 NSaved= 2 IEnMin= 2 EnMin= -329.636437371382     IErMin= 2 ErrMin= 1.24D-05
 ErrMax= 1.24D-05  0.00D+00 EMaxC= 1.00D-01 BMatC= 2.57D-09 BMatP= 6.99D-09
 IDIUse=1 WtCom= 1.00D+00 WtEn= 0.00D+00
 Coeff-Com: -0.440D+00 0.144D+01
 Coeff:     -0.440D+00 0.144D+01
 Gap=     0.383 Goal=   None    Shift=    0.000
 RMSDP=1.15D-06 MaxDP=2.53D-05 DE=-2.52D-08 OVMax= 7.80D-05

 Cycle  11  Pass 1  IDiag  1:
 RMSU=  7.31D-07    CP:  1.00D+00  1.55D+00
 E= -329.636437385294     Delta-E=       -0.000000013912 Rises=F Damp=F
 DIIS: error= 4.63D-06 at cycle   3 NSaved=   3.
 NSaved= 3 IEnMin= 3 EnMin= -329.636437385294     IErMin= 3 ErrMin= 4.63D-06
 ErrMax= 4.63D-06  0.00D+00 EMaxC= 1.00D-01 BMatC= 1.06D-09 BMatP= 2.57D-09
 IDIUse=1 WtCom= 1.00D+00 WtEn= 0.00D+00
 Coeff-Com: -0.648D+00 0.462D+00 0.119D+01
 Coeff:     -0.648D+00 0.462D+00 0.119D+01
 Gap=     0.383 Goal=   None    Shift=    0.000
 RMSDP=1.02D-06 MaxDP=2.20D-05 DE=-1.39D-08 OVMax= 6.57D-05

 Cycle  12  Pass 1  IDiag  1:
 RMSU=  4.32D-07    CP:  1.00D+00  2.15D+00  1.45D+00
 E= -329.636437390426     Delta-E=       -0.000000005132 Rises=F Damp=F
 DIIS: error= 8.67D-07 at cycle   4 NSaved=   4.
 NSaved= 4 IEnMin= 4 EnMin= -329.636437390426     IErMin= 4 ErrMin= 8.67D-07
 ErrMax= 8.67D-07  0.00D+00 EMaxC= 1.00D-01 BMatC= 3.01D-11 BMatP= 1.06D-09
 IDIUse=1 WtCom= 1.00D+00 WtEn= 0.00D+00
 Coeff-Com:  0.111D-01-0.857D-01 0.285D-01 0.105D+01
 Coeff:      0.111D-01-0.857D-01 0.285D-01 0.105D+01
 Gap=     0.383 Goal=   None    Shift=    0.000
 RMSDP=2.85D-07 MaxDP=8.69D-06 DE=-5.13D-09 OVMax= 8.53D-06

 Cycle  13  Pass 1  IDiag  1:
 RMSU=  6.75D-08    CP:  1.00D+00  2.16D+00  1.60D+00  1.32D+00
 E= -329.636437390535     Delta-E=       -0.000000000109 Rises=F Damp=F
 DIIS: error= 2.38D-07 at cycle   5 NSaved=   5.
 NSaved= 5 IEnMin= 5 EnMin= -329.636437390535     IErMin= 5 ErrMin= 2.38D-07
 ErrMax= 2.38D-07  0.00D+00 EMaxC= 1.00D-01 BMatC= 4.17D-12 BMatP= 3.01D-11
 IDIUse=1 WtCom= 1.00D+00 WtEn= 0.00D+00
 Coeff-Com:  0.105D+00-0.866D-01-0.176D+00 0.217D+00 0.940D+00
 Coeff:      0.105D+00-0.866D-01-0.176D+00 0.217D+00 0.940D+00
 Gap=     0.383 Goal=   None    Shift=    0.000
 RMSDP=9.04D-08 MaxDP=3.56D-06 DE=-1.09D-10 OVMax= 1.79D-06

 Cycle  14  Pass 1  IDiag  1:
 RMSU=  2.43D-08    CP:  1.00D+00  2.15D+00  1.62D+00  1.45D+00  1.28D+00
 E= -329.636437390518     Delta-E=        0.000000000017 Rises=F Damp=F
 DIIS: error= 5.89D-08 at cycle   6 NSaved=   6.
 NSaved= 6 IEnMin= 5 EnMin= -329.636437390535     IErMin= 6 ErrMin= 5.89D-08
 ErrMax= 5.89D-08  0.00D+00 EMaxC= 1.00D-01 BMatC= 1.93D-13 BMatP= 4.17D-12
 IDIUse=1 WtCom= 1.00D+00 WtEn= 0.00D+00
 Coeff-Com:  0.292D-02 0.244D-02-0.746D-02-0.600D-01 0.522D-01 0.101D+01
 Coeff:      0.292D-02 0.244D-02-0.746D-02-0.600D-01 0.522D-01 0.101D+01
 Gap=     0.383 Goal=   None    Shift=    0.000
 RMSDP=9.53D-09 MaxDP=2.37D-07 DE= 1.74D-11 OVMax= 2.16D-07

 SCF Done:  E(RHF) =  -329.636437391     A.U. after   14 cycles
            NFock= 14  Conv=0.95D-08     -V/T= 2.0011
 KE= 3.292651726958D+02 PE=-1.312178749754D+03 EE= 3.840766695661D+02
 Leave Link  502 at Fri Feb 07 13:07:47 2025, MaxMem=    33554432 cpu:        23.0
 (Enter Z:\home\jakler\g09\G09W\l801.exe)
 ExpMin= 3.60D-02 ExpMax= 1.14D+04 ExpMxC= 1.72D+03 IAcc=3 IRadAn=         5 AccDes= 0.00D+00
 HarFok:  IExCor=  205 AccDes= 0.00D+00 IRadAn=         5 IDoV=-2 UseB2=F ITyADJ=14
 ICtDFT= 12500011 ScaDFX=  1.000000  1.000000  1.000000  1.000000
 Largest valence mixing into a core orbital is  1.31D-04
 Largest core mixing into a valence orbital is  4.06D-05
 Range of M.O.s used for correlation:     8   189
 NBasis=   189 NAE=    25 NBE=    25 NFC=     7 NFV=     0
 NROrb=    182 NOA=    18 NOB=    18 NVA=   164 NVB=   164

 **** Warning!!: The largest alpha MO coefficient is  0.17842228D+03

 Leave Link  801 at Fri Feb 07 13:07:47 2025, MaxMem=    33554432 cpu:         0.0
 (Enter Z:\home\jakler\g09\G09W\l906.exe)
 Frozen-core derivative calculation, NFC=   7 NFV=   0.
 FulOut=F Deriv=T AODrv=F NAtomX=    12
   MMem=           7  MDisk=          18 MDiskD=          18
  W3Min=      926100 MinDsk=     1341934 NBas6D=         196
 NBas2D=       19594    NTT=       19306    LW2=     2040000
    MDV=    33246971 MDiskM=        2214 NBas2p=       19196
 Disk-based method using ON**2 memory for 18 occupieds at a time.
 Estimated scratch disk usage=   266536372 words.
 IMap=   1   2   3   4   5   6   7   8   9  10  11  12  13  14  15  16  17  18  19  20
 IMap=  21  22  23  24  25
 Actual    scratch disk usage=   236522932 words.
 GetIJB would need an additional    19210291 words of memory to use all   8 processors.
 JobTyp=1 Pass  1:  I=   8 to  25 NPSUse=  5 ParTrn=T ParDer=T DoDerP=T.
 Spin components of T(2) and E(2):
     alpha-alpha T2 =       0.4737365399D-01 E2=     -0.1368619340D+00
     alpha-beta  T2 =       0.2459447389D+00 E2=     -0.7521058923D+00
     beta-beta   T2 =       0.4737365399D-01 E2=     -0.1368619340D+00
 The integrals were generated   1 times.
 ANorm=    0.1157882570D+01
 E2 =    -0.1025829760D+01 EUMP2 =    -0.33066226715087D+03
 Leave Link  906 at Fri Feb 07 13:08:14 2025, MaxMem=    33554432 cpu:        27.0
 (Enter Z:\home\jakler\g09\G09W\l1002.exe)
 Minotr:  Closed shell wavefunction.
          Computing MP2/KS-MP2 derivatives.
          Using Z-Vector for PSCF gradient.
          Skipping F1 and S1 gradient terms here.
          Frozen-core window.
          Direct CPHF calculation.
          Differentiating once with respect to electric field.
                with respect to dipole field.
          Electric field/nuclear overlap derivatives assumed to be zero.
          Requested convergence is 1.0D-10 RMS, and 1.0D-09 maximum.
          NewPWx=F KeepS1=T KeepF1=T KeepIn=T MapXYZ=F SortEE=F KeepMc=T.
          MDV=      33554265 using IRadAn=       0.
          Solving linear equations separately, MaxMat=       0.
          There are     1 degrees of freedom in the 1st order CPHF.  IDoFFX=0 NUNeed=     1.
 FoFJK:  IHMeth= 1 ICntrl=       0 DoSepK=F KAlg= 0 I1Cent=   0 FoldK=F
 IRaf= 980000000 NMat=   1 IRICut=       1 DoRegI=T DoRafI=F ISym2E= 0.
 FoFCou: FMM=F IPFlag=           0 FMFlag=      100000 FMFlg1=           0
         NFxFlg=           0 DoJE=F BraDBF=F KetDBF=F FulRan=T
         wScrn=  0.000000 ICntrl=       0 IOpCl=  0 I1Cent=           0 NGrid=           0
         NMat0=    1 NMatS0=      1 NMatT0=    0 NMatD0=    1 NMtDS0=    0 NMtDT0=    0
 Symmetry not used in FoFCou.
 LinEq1:  Iter=  0 NonCon=     1 RMS=3.70D-03 Max=7.02D-02 NDo=     1
 AX will form     1 AO Fock derivatives at one time.
 LinEq1:  Iter=  1 NonCon=     1 RMS=9.86D-04 Max=1.15D-02 NDo=     1
 LinEq1:  Iter=  2 NonCon=     1 RMS=2.90D-04 Max=5.23D-03 NDo=     1
 LinEq1:  Iter=  3 NonCon=     1 RMS=1.10D-04 Max=2.91D-03 NDo=     1
 LinEq1:  Iter=  4 NonCon=     1 RMS=4.29D-05 Max=1.05D-03 NDo=     1
 LinEq1:  Iter=  5 NonCon=     1 RMS=1.57D-05 Max=4.72D-04 NDo=     1
 LinEq1:  Iter=  6 NonCon=     1 RMS=5.75D-06 Max=1.93D-04 NDo=     1
 LinEq1:  Iter=  7 NonCon=     1 RMS=1.96D-06 Max=2.67D-05 NDo=     1
 LinEq1:  Iter=  8 NonCon=     1 RMS=3.81D-07 Max=4.48D-06 NDo=     1
 LinEq1:  Iter=  9 NonCon=     1 RMS=6.25D-08 Max=6.81D-07 NDo=     1
 LinEq1:  Iter= 10 NonCon=     1 RMS=1.78D-08 Max=2.98D-07 NDo=     1
 LinEq1:  Iter= 11 NonCon=     1 RMS=4.48D-09 Max=5.00D-08 NDo=     1
 LinEq1:  Iter= 12 NonCon=     1 RMS=1.01D-09 Max=1.73D-08 NDo=     1
 LinEq1:  Iter= 13 NonCon=     1 RMS=2.84D-10 Max=2.71D-09 NDo=     1
 LinEq1:  Iter= 14 NonCon=     1 RMS=7.96D-11 Max=1.79D-09 NDo=     1
 LinEq1:  Iter= 15 NonCon=     0 RMS=1.28D-11 Max=1.30D-10 NDo=     1
 Linear equations converged to 1.000D-10 1.000D-09 after    15 iterations.
 End of Minotr F.D. properties file   721 does not exist.
 End of Minotr F.D. properties file   722 does not exist.
 End of Minotr F.D. properties file   788 does not exist.
 Leave Link 1002 at Fri Feb 07 13:08:40 2025, MaxMem=    33554432 cpu:        25.0
 (Enter Z:\home\jakler\g09\G09W\l601.exe)
 Copying SCF densities to generalized density rwf, IOpCl= 0 IROHF=0.

 **********************************************************************

            Population analysis using the MP2 density.

 **********************************************************************

 Alpha  occ. eigenvalues --  -26.30794 -11.33435 -11.25567 -11.25561 -11.24992
 Alpha  occ. eigenvalues --  -11.24990 -11.24606  -1.62285  -1.16944  -1.03716
 Alpha  occ. eigenvalues --   -1.02707  -0.85900  -0.84399  -0.74645  -0.70057
 Alpha  occ. eigenvalues --   -0.69020  -0.69017  -0.62762  -0.61032  -0.59823
 Alpha  occ. eigenvalues --   -0.53513  -0.51205  -0.51201  -0.35439  -0.34402
 Alpha virt. eigenvalues --    0.03921   0.04637   0.05234   0.06664   0.07199
 Alpha virt. eigenvalues --    0.09713   0.10837   0.12114   0.12578   0.14718
 Alpha virt. eigenvalues --    0.15176   0.15264   0.15992   0.17779   0.17819
 Alpha virt. eigenvalues --    0.18852   0.18905   0.19311   0.20479   0.20779
 Alpha virt. eigenvalues --    0.20849   0.20890   0.20895   0.22156   0.22700
 Alpha virt. eigenvalues --    0.24630   0.24817   0.27600   0.28412   0.29993
 Alpha virt. eigenvalues --    0.30477   0.32729   0.35808   0.37758   0.39936
 Alpha virt. eigenvalues --    0.41882   0.42338   0.42528   0.42830   0.46164
 Alpha virt. eigenvalues --    0.47580   0.47768   0.51391   0.53971   0.54000
 Alpha virt. eigenvalues --    0.57467   0.64167   0.65769   0.69857   0.70639
 Alpha virt. eigenvalues --    0.71182   0.73207   0.74517   0.74861   0.74875
 Alpha virt. eigenvalues --    0.78226   0.79644   0.80666   0.80907   0.87518
 Alpha virt. eigenvalues --    0.89637   0.93099   0.94044   0.95263   0.98436
 Alpha virt. eigenvalues --    0.98947   1.03159   1.03298   1.06008   1.06676
 Alpha virt. eigenvalues --    1.09458   1.11018   1.12526   1.14292   1.19624
 Alpha virt. eigenvalues --    1.21249   1.21714   1.22793   1.30626   1.33803
 Alpha virt. eigenvalues --    1.37155   1.43961   1.48741   1.59071   1.68839
 Alpha virt. eigenvalues --    1.69430   1.69858   1.76756   1.78226   1.80592
 Alpha virt. eigenvalues --    1.81987   1.82738   1.83992   1.87505   1.89664
 Alpha virt. eigenvalues --    1.90583   1.92869   2.00299   2.01065   2.03931
 Alpha virt. eigenvalues --    2.09557   2.15596   2.21296   2.21409   2.21730
 Alpha virt. eigenvalues --    2.23088   2.24575   2.27461   2.31919   2.33917
 Alpha virt. eigenvalues --    2.36346   2.36601   2.39293   2.58229   2.61247
 Alpha virt. eigenvalues --    2.64171   2.73012   2.76868   2.78052   2.83542
 Alpha virt. eigenvalues --    2.93975   2.96311   2.99540   3.00424   3.02472
 Alpha virt. eigenvalues --    3.02918   3.03672   3.06374   3.14807   3.17665
 Alpha virt. eigenvalues --    3.17824   3.20181   3.26583   3.27830   3.30691
 Alpha virt. eigenvalues --    3.46551   3.54905   3.58087   3.75788   3.77082
 Alpha virt. eigenvalues --    3.89182   3.90251   4.02129   4.12513   4.22786
 Alpha virt. eigenvalues --    4.28829   4.39346   4.43650   4.45088   4.54879
 Alpha virt. eigenvalues --    4.56481   4.58428   5.26247   5.34745   6.96071
 Alpha virt. eigenvalues --    7.08930   7.38921  24.71154  25.07137  25.12816
 Alpha virt. eigenvalues --   25.23387  25.24889  25.34942  68.79748
          Condensed to atoms (all electrons):
               1          2          3          4          5          6
     1  C   12.010938  -4.080037   3.192849  -2.430252   0.958303  -4.157201
     2  C   -4.080037   9.945411  -3.645181   3.012224  -2.430252   3.250606
     3  C    3.192849  -3.645181   9.868303  -3.645181   3.192849  -3.032227
     4  C   -2.430252   3.012224  -3.645181   9.945411  -4.080037   3.250606
     5  C    0.958303  -2.430252   3.192849  -4.080037  12.010938  -4.157201
     6  C   -4.157201   3.250606  -3.032227   3.250606  -4.157201  11.360621
     7  F   -0.271438   0.005581  -0.022629   0.005581  -0.271438   0.492440
     8  H    0.080649  -0.200620   0.568565  -0.200620   0.080649  -0.043937
     9  H    0.678849  -0.182120   0.094393  -0.024293  -0.028084  -0.274652
    10  H   -0.028084  -0.024293   0.094393  -0.182120   0.678849  -0.274652
    11  H   -0.270436   0.593449  -0.229061   0.071630  -0.013645   0.122385
    12  H   -0.013645   0.071630  -0.229061   0.593449  -0.270436   0.122385
               7          8          9         10         11         12
     1  C   -0.271438   0.080649   0.678849  -0.028084  -0.270436  -0.013645
     2  C    0.005581  -0.200620  -0.182120  -0.024293   0.593449   0.071630
     3  C   -0.022629   0.568565   0.094393   0.094393  -0.229061  -0.229061
     4  C    0.005581  -0.200620  -0.024293  -0.182120   0.071630   0.593449
     5  C   -0.271438   0.080649  -0.028084   0.678849  -0.013645  -0.270436
     6  C    0.492440  -0.043937  -0.274652  -0.274652   0.122385   0.122385
     7  F    9.267235   0.000169  -0.019676  -0.019676   0.000573   0.000573
     8  H    0.000169   0.561962   0.001600   0.001600  -0.014985  -0.014985
     9  H   -0.019676   0.001600   0.553795  -0.001920  -0.019519   0.000835
    10  H   -0.019676   0.001600  -0.001920   0.553795   0.000835  -0.019519
    11  H    0.000573  -0.014985  -0.019519   0.000835   0.565307   0.000099
    12  H    0.000573  -0.014985   0.000835  -0.019519   0.000099   0.565307
 Mulliken charges:
               1
     1  C    0.329504
     2  C   -0.316398
     3  C   -0.208013
     4  C   -0.316398
     5  C    0.329504
     6  C   -0.659174
     7  F   -0.167296
     8  H    0.179952
     9  H    0.220792
    10  H    0.220792
    11  H    0.193367
    12  H    0.193367
 Sum of Mulliken charges =   0.00000
 Mulliken charges with hydrogens summed into heavy atoms:
               1
     1  C    0.550297
     2  C   -0.123031
     3  C   -0.028060
     4  C   -0.123031
     5  C    0.550297
     6  C   -0.659174
     7  F   -0.167296
 Electronic spatial extent (au):  <R**2>=            652.4448
 Charge=              0.0000 electrons
 Dipole moment (field-independent basis, Debye):
    X=              0.0000    Y=             -1.7096    Z=              0.0000  Tot=              1.7096
 Quadrupole moment (field-independent basis, Debye-Ang):
   XX=            -35.0510   YY=            -41.7494   ZZ=            -44.1865
   XY=              0.0000   XZ=              0.0000   YZ=              0.0000
 Traceless Quadrupole moment (field-independent basis, Debye-Ang):
   XX=              5.2780   YY=             -1.4204   ZZ=             -3.8576
   XY=              0.0000   XZ=              0.0000   YZ=              0.0000
 Octapole moment (field-independent basis, Debye-Ang**2):
  XXX=              0.0000  YYY=             -2.5633  ZZZ=              0.0000  XYY=              0.0000
  XXY=              5.0635  XXZ=              0.0000  XZZ=              0.0000  YZZ=              9.0888
  YYZ=              0.0000  XYZ=              0.0000
 Hexadecapole moment (field-independent basis, Debye-Ang**3):
 XXXX=           -272.1431 YYYY=           -488.9761 ZZZZ=            -51.3220 XXXY=              0.0000
 XXXZ=              0.0000 YYYX=              0.0000 YYYZ=              0.0000 ZZZX=              0.0000
 ZZZY=              0.0000 XXYY=           -119.8438 XXZZ=            -66.0003 YYZZ=            -95.6495
 XXYZ=              0.0000 YYXZ=              0.0000 ZZXY=              0.0000
 N-N= 2.692004701018D+02 E-N=-1.312969988337D+03  KE= 3.304979910812D+02
 No NMR shielding tensors so no spin-rotation constants.
 Leave Link  601 at Fri Feb 07 13:08:40 2025, MaxMem=    33554432 cpu:         0.0
 (Enter Z:\home\jakler\g09\G09W\l9999.exe)
 1|1|UNPC-QUANTUM-RYZEN5|SP|RMP2-FC|6-311++G(d,p)|C6H5F1|JAKLER|07-Feb-
 2025|0||#P MP2/6-311++G** nosymm Density=MP2||X=H||0,1|C,0,1.21580609,
 0.25997988,0.|C,0,1.20676009,-1.13431122,0.|C,0,0.,-1.83315328,0.|C,0,
 -1.20676009,-1.13431122,0.|C,0,-1.21580609,0.25997988,0.|C,0,0.,0.9258
 0893,0.|F,0,0.,2.28291803,0.|H,0,0.,-2.91654736,0.|H,0,2.13882917,0.82
 605593,0.|H,0,-2.13882917,0.82605593,0.|H,0,2.14728916,-1.67289227,0.|
 H,0,-2.14728916,-1.67289227,0.||Version=IA32W-G09RevD.01|HF=-329.63643
 74|MP2=-330.6622672|RMSD=9.527e-009|Dipole=0.,-0.6725894,0.|Quadrupole
 =3.9240424,-1.0560457,-2.8679966,0.,0.,0.|PG=C02V [C2(H1C1C1F1),SGV(C4
 H4)]||@


 NOTHING MAKES A PERSON MORE PRODUCTIVE THAN THE LAST MINUTE.
 Job cpu time:       0 days  0 hours  1 minutes 20.0 seconds.
 File lengths (MBytes):  RWF=   1829 Int=      0 D2E=      0 Chk=      3 Scr=      1
 Normal termination of Gaussian 09 at Fri Feb 07 13:08:41 2025.
