 Entering Gaussian System, Link 0=g09
 Initial command:
 /apps/software//g09/l1.exe /scratch/itamar/2465.cluster.abaxnet/Gau-27758.inp -scrdir=/scratch/itamar/2465.cluster.abaxnet/
 Entering Link 1 = /apps/software//g09/l1.exe PID=     27759.
  
 Copyright (c) 1988,1990,1992,1993,1995,1998,2003,2009, Gaussian, Inc.
                  All Rights Reserved.
  
 This is part of the Gaussian(R) 09 program.  It is based on
 the Gaussian(R) 03 system (copyright 2003, Gaussian, Inc.),
 the Gaussian(R) 98 system (copyright 1998, Gaussian, Inc.),
 the Gaussian(R) 94 system (copyright 1995, Gaussian, Inc.),
 the Gaussian 92(TM) system (copyright 1992, Gaussian, Inc.),
 the Gaussian 90(TM) system (copyright 1990, Gaussian, Inc.),
 the Gaussian 88(TM) system (copyright 1988, Gaussian, Inc.),
 the Gaussian 86(TM) system (copyright 1986, Carnegie Mellon
 University), and the Gaussian 82(TM) system (copyright 1983,
 Carnegie Mellon University). Gaussian is a federally registered
 trademark of Gaussian, Inc.
  
 This software contains proprietary and confidential information,
 including trade secrets, belonging to Gaussian, Inc.
  
 This software is provided under written license and may be
 used, copied, transmitted, or stored only in accord with that
 written license.
  
 The following legend is applicable only to US Government
 contracts under FAR:
  
                    RESTRICTED RIGHTS LEGEND
  
 Use, reproduction and disclosure by the US Government is
 subject to restrictions as set forth in subparagraphs (a)
 and (c) of the Commercial Computer Software - Restricted
 Rights clause in FAR 52.227-19.
  
 Gaussian, Inc.
 340 Quinnipiac St., Bldg. 40, Wallingford CT 06492
  
  
 ---------------------------------------------------------------
 Warning -- This program may not be used in any manner that
 competes with the business of Gaussian, Inc. or will provide
 assistance to any competitor of Gaussian, Inc.  The licensee
 of this program is prohibited from giving any competitor of
 Gaussian, Inc. access to this program.  By using this program,
 the user acknowledges that Gaussian, Inc. is engaged in the
 business of creating and licensing software in the field of
 computational chemistry and represents and warrants to the
 licensee that it is not a competitor of Gaussian, Inc. and that
 it will not use this program in any manner prohibited above.
 ---------------------------------------------------------------
  

 Cite this work as:
 Gaussian 09, Revision A.02,
 M. J. Frisch, G. W. Trucks, H. B. Schlegel, G. E. Scuseria, 
 M. A. Robb, J. R. Cheeseman, G. Scalmani, V. Barone, B. Mennucci, 
 G. A. Petersson, H. Nakatsuji, M. Caricato, X. Li, H. P. Hratchian, 
 A. F. Izmaylov, J. Bloino, G. Zheng, J. L. Sonnenberg, M. Hada, 
 M. Ehara, K. Toyota, R. Fukuda, J. Hasegawa, M. Ishida, T. Nakajima, 
 Y. Honda, O. Kitao, H. Nakai, T. Vreven, J. A. Montgomery, Jr., 
 J. E. Peralta, F. Ogliaro, M. Bearpark, J. J. Heyd, E. Brothers, 
 K. N. Kudin, V. N. Staroverov, R. Kobayashi, J. Normand, 
 K. Raghavachari, A. Rendell, J. C. Burant, S. S. Iyengar, J. Tomasi, 
 M. Cossi, N. Rega, J. M. Millam, M. Klene, J. E. Knox, J. B. Cross, 
 V. Bakken, C. Adamo, J. Jaramillo, R. Gomperts, R. E. Stratmann, 
 O. Yazyev, A. J. Austin, R. Cammi, C. Pomelli, J. W. Ochterski, 
 R. L. Martin, K. Morokuma, V. G. Zakrzewski, G. A. Voth, 
 P. Salvador, J. J. Dannenberg, S. Dapprich, A. D. Daniels, 
 O. Farkas, J. B. Foresman, J. V. Ortiz, J. Cioslowski, 
 and D. J. Fox, Gaussian, Inc., Wallingford CT, 2009.
 
 ******************************************
 Gaussian 09:  EM64L-G09RevA.02 11-Jun-2009
                 3-Dec-2021 
 ******************************************
 %Mem=3800MB
 %NProcShared=6
 Will use up to    6 processors via shared memory.
 %chk=/home/itamar/Aromaticity-test-set/T6-Subst-Complex-in-Benzene/F/f.chk
 -----------------------------
 #P MP2/6-311++G** DENSITY=MP2
 -----------------------------
 1/30=1,38=1/1;
 2/12=2,17=6,18=5,40=1/2;
 3/5=4,6=6,7=1111,11=9,16=1,25=1,30=1,71=1/1,2,3;
 4//1;
 5/5=2,38=5/2;
 8/6=4,10=2/1;
 9/15=1,16=-3/6;
 10/5=1,13=10/2;
 6/7=2,8=2,9=2,10=2,22=2/1;
 99/5=1,9=1/99;
 Leave Link    1 at Fri Dec  3 14:17:45 2021, MaxMem=  498073600 cpu:       0.2
 (Enter /apps/software//g09/l101.exe)
 ---
 X=H
 ---
 Symbolic Z-matrix:
 Charge =  0 Multiplicity = 1
 6                    -1.21581   0.25998   0. 
 6                    -1.20676  -1.13431   0. 
 6                     0.       -1.83315   0. 
 6                     1.20676  -1.13431   0. 
 6                     1.21581   0.25998   0. 
 6                     0.        0.92581   0. 
 9                     0.        2.28292   0. 
 1                     0.       -2.91655   0. 
 1                    -2.13883   0.82606   0. 
 1                     2.13883   0.82606   0. 
 1                    -2.14729  -1.67289   0. 
 1                     2.14729  -1.67289   0. 
 
 NAtoms=     12 NQM=     12 NQMF=      0 NMic=      0 NMicF=      0 NTot=     12.
                    Isotopes and Nuclear Properties:
 (Nuclear quadrupole moments (NQMom) in fm**2, nuclear magnetic moments (NMagM)
  in nuclear magnetons)

  Atom         1           2           3           4           5           6           7           8           9          10
 IAtWgt=          12          12          12          12          12          12          19           1           1           1
 AtmWgt=  12.0000000  12.0000000  12.0000000  12.0000000  12.0000000  12.0000000  18.9984033   1.0078250   1.0078250   1.0078250
 NucSpn=           0           0           0           0           0           0           1           1           1           1
 AtZEff=   0.0000000   0.0000000   0.0000000   0.0000000   0.0000000   0.0000000   0.0000000   0.0000000   0.0000000   0.0000000
 NQMom=    0.0000000   0.0000000   0.0000000   0.0000000   0.0000000   0.0000000   0.0000000   0.0000000   0.0000000   0.0000000
 NMagM=    0.0000000   0.0000000   0.0000000   0.0000000   0.0000000   0.0000000   2.6288670   2.7928460   2.7928460   2.7928460

  Atom        11          12
 IAtWgt=           1           1
 AtmWgt=   1.0078250   1.0078250
 NucSpn=           1           1
 AtZEff=   0.0000000   0.0000000
 NQMom=    0.0000000   0.0000000
 NMagM=    2.7928460   2.7928460
 Leave Link  101 at Fri Dec  3 14:17:45 2021, MaxMem=  498073600 cpu:       0.4
 (Enter /apps/software//g09/l202.exe)
                          Input orientation:                          
 ---------------------------------------------------------------------
 Center     Atomic      Atomic             Coordinates (Angstroms)
 Number     Number       Type             X           Y           Z
 ---------------------------------------------------------------------
      1          6           0       -1.215806    0.259980    0.000000
      2          6           0       -1.206760   -1.134311    0.000000
      3          6           0        0.000000   -1.833153    0.000000
      4          6           0        1.206760   -1.134311    0.000000
      5          6           0        1.215806    0.259980    0.000000
      6          6           0        0.000000    0.925809    0.000000
      7          9           0        0.000000    2.282918    0.000000
      8          1           0        0.000000   -2.916547    0.000000
      9          1           0       -2.138829    0.826056    0.000000
     10          1           0        2.138829    0.826056    0.000000
     11          1           0       -2.147289   -1.672892    0.000000
     12          1           0        2.147289   -1.672892    0.000000
 ---------------------------------------------------------------------
                    Distance matrix (angstroms):
                    1          2          3          4          5
     1  C    0.000000
     2  C    1.394320   0.000000
     3  C    2.420618   1.394507   0.000000
     4  C    2.795152   2.413520   1.394507   0.000000
     5  C    2.431612   2.795152   2.420618   1.394320   0.000000
     6  C    1.386186   2.387544   2.758962   2.387544   1.386186
     7  F    2.360183   3.624048   4.116071   3.624048   2.360183
     8  H    3.401251   2.152356   1.083394   2.152356   3.401251
     9  H    1.082780   2.170666   3.412621   3.877629   3.402061
    10  H    3.402061   3.877629   3.412621   2.170666   1.082780
    11  H    2.145613   1.083819   2.153261   3.397015   3.878969
    12  H    3.878969   3.397015   2.153261   1.083819   2.145613
                    6          7          8          9         10
     6  C    0.000000
     7  F    1.357109   0.000000
     8  H    3.842356   5.199465   0.000000
     9  H    2.141154   2.587863   4.310646   0.000000
    10  H    2.141154   2.587863   4.310646   4.277658   0.000000
    11  H    3.371068   4.501031   2.481437   2.498962   4.961406
    12  H    3.371068   4.501031   2.481437   4.961406   2.498962
                   11         12
    11  H    0.000000
    12  H    4.294578   0.000000
 Stoichiometry    C6H5F
 Framework group  C2V[C2(HCCF),SGV(C4H4)]
 Deg. of freedom    11
 Full point group                 C2V     NOp   4
 Largest Abelian subgroup         C2V     NOp   4
 Largest concise Abelian subgroup C2      NOp   2
                         Standard orientation:                         
 ---------------------------------------------------------------------
 Center     Atomic      Atomic             Coordinates (Angstroms)
 Number     Number       Type             X           Y           Z
 ---------------------------------------------------------------------
      1          6           0        0.000000    1.215806    0.259980
      2          6           0        0.000000    1.206760   -1.134311
      3          6           0        0.000000    0.000000   -1.833153
      4          6           0        0.000000   -1.206760   -1.134311
      5          6           0        0.000000   -1.215806    0.259980
      6          6           0        0.000000    0.000000    0.925809
      7          9           0        0.000000    0.000000    2.282918
      8          1           0        0.000000    0.000000   -2.916547
      9          1           0        0.000000    2.138829    0.826056
     10          1           0        0.000000   -2.138829    0.826056
     11          1           0        0.000000    2.147289   -1.672892
     12          1           0        0.000000   -2.147289   -1.672892
 ---------------------------------------------------------------------
 Rotational constants (GHZ):      5.6821490      2.5624200      1.7660174
 Leave Link  202 at Fri Dec  3 14:17:45 2021, MaxMem=  498073600 cpu:       0.1
 (Enter /apps/software//g09/l301.exe)
 Standard basis: 6-311++G(d,p) (5D, 7F)
 Ernie: Thresh=  0.10000D-02 Tol=  0.10000D-05 Strict=F.
 There are    82 symmetry adapted basis functions of A1  symmetry.
 There are    17 symmetry adapted basis functions of A2  symmetry.
 There are    30 symmetry adapted basis functions of B1  symmetry.
 There are    60 symmetry adapted basis functions of B2  symmetry.
 Integral buffers will be    131072 words long.
 Raffenetti 1 integral format.
 Two-electron integral symmetry is turned on.
   189 basis functions,   297 primitive gaussians,   196 cartesian basis functions
    25 alpha electrons       25 beta electrons
       nuclear repulsion energy       269.2004902918 Hartrees.
 IExCor=    0 DFT=F Ex=HF Corr=None ExCW=0 ScaHFX=  1.000000
 ScaDFX=  1.000000  1.000000  1.000000  1.000000 ScalE2=  1.000000  1.000000
 IRadAn=      0 IRanWt=     -1 IRanGd=            0 ICorTp=0
 NAtoms=   12 NActive=   12 NUniq=    8 SFac= 1.69D+00 NAtFMM=   80 NAOKFM=F Big=F
 Leave Link  301 at Fri Dec  3 14:17:45 2021, MaxMem=  498073600 cpu:       0.4
 (Enter /apps/software//g09/l302.exe)
 NPDir=0 NMtPBC=     1 NCelOv=     1 NCel=       1 NClECP=     1 NCelD=      1
         NCelK=      1 NCelE2=     1 NClLst=     1 CellRange=     0.0.
 One-electron integrals computed using PRISM.
 One-electron integral symmetry used in STVInt
 NBasis=   189 RedAO= T  NBF=    82    17    30    60
 NBsUse=   189 1.00D-06 NBFU=    82    17    30    60
 Leave Link  302 at Fri Dec  3 14:17:45 2021, MaxMem=  498073600 cpu:       1.1
 (Enter /apps/software//g09/l303.exe)
 DipDrv:  MaxL=1.
 Leave Link  303 at Fri Dec  3 14:17:45 2021, MaxMem=  498073600 cpu:       0.2
 (Enter /apps/software//g09/l401.exe)
 Harris functional with IExCor=  205 diagonalized for initial guess.
 ExpMin= 3.60D-02 ExpMax= 1.14D+04 ExpMxC= 1.72D+03 IAcc=3 IRadAn=         0 AccDes= 0.00D+00
 HarFok:  IExCor=  205 AccDes= 0.00D+00 IRadAn=         0 IDoV= 1
 ScaDFX=  1.000000  1.000000  1.000000  1.000000
 FoFCou: FMM=F IPFlag=           0 FMFlag=      100000 FMFlg1=           0
         NFxFlg=           0 DoJE=T BraDBF=F KetDBF=T FulRan=T
         Omega=  0.000000  0.000000  1.000000  0.000000  0.000000 ICntrl=     500 IOpCl=  0
         NMat0=    1 NMatS0=    1 NMatT0=    0 NMatD0=    1 NMtDS0=    0 NMtDT0=    0
         I1Cent=           4 NGrid=           0.
 Petite list used in FoFCou.
 Harris En= -329.966947912319    
 Initial guess orbital symmetries:
       Occupied  (A1) (B2) (A1) (A1) (B2) (A1) (A1) (A1) (A1) (B2)
                 (A1) (B2) (A1) (A1) (B2) (A1) (A1) (B2) (B1) (A1)
                 (B2) (B1) (B2) (A2) (B1)
       Virtual   (A2) (B1) (A1) (A1) (B2) (B1) (A1) (B2) (A1) (B1)
                 (A1) (A2) (B2) (A1) (B1) (A1) (B2) (A1) (B2) (A1)
                 (B2) (A1) (A2) (B1) (B2) (A1) (A1) (B2) (B1) (A1)
                 (B2) (A1) (B2) (A1) (B2) (A1) (A1) (A1) (B2) (B1)
                 (A1) (B2) (B2) (B2) (A1) (A1) (A1) (B2) (B2) (B1)
                 (A1) (A1) (B2) (A1) (A2) (B1) (A2) (B2) (B1) (A1)
                 (B1) (B2) (A1) (A1) (B2) (A1) (A1) (B2) (A1) (B2)
                 (B2) (A1) (B1) (B2) (A2) (A1) (A2) (B2) (A1) (B1)
                 (A2) (B1) (A1) (A1) (B2) (B1) (A1) (B2) (A1) (A1)
                 (A2) (B1) (B2) (B1) (A1) (B2) (A1) (B2) (B1) (A2)
                 (B2) (A1) (B1) (A2) (B2) (A1) (B2) (A1) (B1) (B2)
                 (A1) (A2) (A1) (B1) (B2) (A2) (A1) (A1) (B2) (B2)
                 (B1) (A1) (A1) (B1) (A2) (A1) (B2) (A1) (B2) (A1)
                 (B2) (B1) (A2) (A1) (B2) (B1) (B2) (A1) (B2) (A1)
                 (B2) (A1) (A1) (A1) (A2) (A1) (B2) (B1) (A1) (B2)
                 (A1) (B2) (B2) (A1) (B1) (B2) (A1) (A1) (A1) (B2)
                 (B2) (A1) (A1) (A1)
 The electronic state of the initial guess is 1-A1.
 Leave Link  401 at Fri Dec  3 14:17:45 2021, MaxMem=  498073600 cpu:       2.2
 (Enter /apps/software//g09/l502.exe)
 Closed shell SCF:
 Requested convergence on RMS density matrix=1.00D-08 within 128 cycles.
 Requested convergence on MAX density matrix=1.00D-06.
 Requested convergence on             energy=1.00D-06.
 No special actions if energy rises.
 Using DIIS extrapolation, IDIIS=  1040.
 Integral symmetry usage will be decided dynamically.
 Keep R1 ints in memory in canonical form, NReq=190329489.
 IEnd=      136416 IEndB=      136416 NGot=   498073600 MDV=   311621938
 LenX=   311621938 LenY=   311583081
 Symmetry not used in FoFDir.
 MinBra= 0 MaxBra= 2 Meth= 1.
 IRaf=       0 NMat=   1 IRICut=       1 DoRegI=T DoRafI=F ISym2E= 0 JSym2E=0.

 Cycle   1  Pass 1  IDiag  1:
 E= -329.328925520194    
 DIIS: error= 6.86D-02 at cycle   1 NSaved=   1.
 NSaved= 1 IEnMin= 1 EnMin= -329.328925520194     IErMin= 1 ErrMin= 6.86D-02
 ErrMax= 6.86D-02 EMaxC= 1.00D-01 BMatC= 6.21D-01 BMatP= 6.21D-01
 IDIUse=3 WtCom= 3.14D-01 WtEn= 6.86D-01
 Coeff-Com:  0.100D+01
 Coeff-En:   0.100D+01
 Coeff:      0.100D+01
 Gap=     0.347 Goal=   None    Shift=    0.000
 GapD=    0.347 DampG=1.000 DampE=0.500 DampFc=0.5000 IDamp=-1.
 Damping current iteration by 5.00D-01
 RMSDP=6.30D-03 MaxDP=1.91D-01              OVMax= 1.67D-01

 Cycle   2  Pass 1  IDiag  1:
 E= -329.489775329348     Delta-E=       -0.160849809154 Rises=F Damp=T
 DIIS: error= 2.73D-02 at cycle   2 NSaved=   2.
 NSaved= 2 IEnMin= 2 EnMin= -329.489775329348     IErMin= 2 ErrMin= 2.73D-02
 ErrMax= 2.73D-02 EMaxC= 1.00D-01 BMatC= 1.39D-01 BMatP= 6.21D-01
 IDIUse=3 WtCom= 7.27D-01 WtEn= 2.73D-01
 Coeff-Com: -0.723D+00 0.172D+01
 Coeff-En:   0.000D+00 0.100D+01
 Coeff:     -0.526D+00 0.153D+01
 Gap=     0.400 Goal=   None    Shift=    0.000
 RMSDP=4.08D-03 MaxDP=1.37D-01 DE=-1.61D-01 OVMax= 5.83D-02

 Cycle   3  Pass 1  IDiag  1:
 E= -329.633883695263     Delta-E=       -0.144108365915 Rises=F Damp=F
 DIIS: error= 4.51D-03 at cycle   3 NSaved=   3.
 NSaved= 3 IEnMin= 3 EnMin= -329.633883695263     IErMin= 3 ErrMin= 4.51D-03
 ErrMax= 4.51D-03 EMaxC= 1.00D-01 BMatC= 2.52D-03 BMatP= 1.39D-01
 IDIUse=3 WtCom= 9.55D-01 WtEn= 4.51D-02
 Coeff-Com: -0.146D+00 0.262D+00 0.884D+00
 Coeff-En:   0.000D+00 0.000D+00 0.100D+01
 Coeff:     -0.139D+00 0.250D+00 0.889D+00
 Gap=     0.387 Goal=   None    Shift=    0.000
 RMSDP=1.59D-03 MaxDP=6.61D-02 DE=-1.44D-01 OVMax= 1.91D-02

 Cycle   4  Pass 1  IDiag  1:
 E= -329.636217768740     Delta-E=       -0.002334073477 Rises=F Damp=F
 DIIS: error= 1.25D-03 at cycle   4 NSaved=   4.
 NSaved= 4 IEnMin= 4 EnMin= -329.636217768740     IErMin= 4 ErrMin= 1.25D-03
 ErrMax= 1.25D-03 EMaxC= 1.00D-01 BMatC= 2.14D-04 BMatP= 2.52D-03
 IDIUse=3 WtCom= 9.88D-01 WtEn= 1.25D-02
 Coeff-Com: -0.213D-01 0.280D-01 0.236D+00 0.757D+00
 Coeff-En:   0.000D+00 0.000D+00 0.000D+00 0.100D+01
 Coeff:     -0.211D-01 0.277D-01 0.233D+00 0.760D+00
 Gap=     0.383 Goal=   None    Shift=    0.000
 RMSDP=3.14D-04 MaxDP=1.32D-02 DE=-2.33D-03 OVMax= 4.92D-03

 Cycle   5  Pass 1  IDiag  1:
 E= -329.636409840613     Delta-E=       -0.000192071873 Rises=F Damp=F
 DIIS: error= 4.84D-04 at cycle   5 NSaved=   5.
 NSaved= 5 IEnMin= 5 EnMin= -329.636409840613     IErMin= 5 ErrMin= 4.84D-04
 ErrMax= 4.84D-04 EMaxC= 1.00D-01 BMatC= 1.24D-05 BMatP= 2.14D-04
 IDIUse=3 WtCom= 9.95D-01 WtEn= 4.84D-03
 Coeff-Com:  0.123D-01-0.228D-01-0.624D-01 0.407D-01 0.103D+01
 Coeff-En:   0.000D+00 0.000D+00 0.000D+00 0.000D+00 0.100D+01
 Coeff:      0.122D-01-0.227D-01-0.621D-01 0.405D-01 0.103D+01
 Gap=     0.383 Goal=   None    Shift=    0.000
 RMSDP=1.52D-04 MaxDP=5.12D-03 DE=-1.92D-04 OVMax= 2.49D-03

 Cycle   6  Pass 1  IDiag  1:
 E= -329.636433350646     Delta-E=       -0.000023510034 Rises=F Damp=F
 DIIS: error= 1.35D-04 at cycle   6 NSaved=   6.
 NSaved= 6 IEnMin= 6 EnMin= -329.636433350646     IErMin= 6 ErrMin= 1.35D-04
 ErrMax= 1.35D-04 EMaxC= 1.00D-01 BMatC= 1.21D-06 BMatP= 1.24D-05
 IDIUse=3 WtCom= 9.99D-01 WtEn= 1.35D-03
 Coeff-Com:  0.304D-02-0.503D-02-0.180D-01-0.519D-01 0.553D-01 0.102D+01
 Coeff-En:   0.000D+00 0.000D+00 0.000D+00 0.000D+00 0.000D+00 0.100D+01
 Coeff:      0.304D-02-0.503D-02-0.180D-01-0.518D-01 0.552D-01 0.102D+01
 Gap=     0.383 Goal=   None    Shift=    0.000
 RMSDP=4.80D-05 MaxDP=1.70D-03 DE=-2.35D-05 OVMax= 7.07D-04

 Cycle   7  Pass 1  IDiag  1:
 E= -329.636436326343     Delta-E=       -0.000002975697 Rises=F Damp=F
 DIIS: error= 6.22D-05 at cycle   7 NSaved=   7.
 NSaved= 7 IEnMin= 7 EnMin= -329.636436326343     IErMin= 7 ErrMin= 6.22D-05
 ErrMax= 6.22D-05 EMaxC= 1.00D-01 BMatC= 2.33D-07 BMatP= 1.21D-06
 IDIUse=1 WtCom= 1.00D+00 WtEn= 0.00D+00
 Coeff-Com: -0.274D-03 0.568D-03 0.272D-02-0.122D-01-0.758D-01 0.153D+00
 Coeff-Com:  0.932D+00
 Coeff:     -0.274D-03 0.568D-03 0.272D-02-0.122D-01-0.758D-01 0.153D+00
 Coeff:      0.932D+00
 Gap=     0.383 Goal=   None    Shift=    0.000
 RMSDP=1.03D-05 MaxDP=3.35D-04 DE=-2.98D-06 OVMax= 5.27D-04

 Cycle   8  Pass 1  IDiag  1:
 E= -329.636437022316     Delta-E=       -0.000000695973 Rises=F Damp=F
 DIIS: error= 4.22D-05 at cycle   8 NSaved=   8.
 NSaved= 8 IEnMin= 8 EnMin= -329.636437022316     IErMin= 8 ErrMin= 4.22D-05
 ErrMax= 4.22D-05 EMaxC= 1.00D-01 BMatC= 7.04D-08 BMatP= 2.33D-07
 IDIUse=1 WtCom= 1.00D+00 WtEn= 0.00D+00
 Coeff-Com: -0.718D-03 0.115D-02 0.573D-02 0.193D-01-0.704D-02-0.355D+00
 Coeff-Com: -0.381D-01 0.137D+01
 Coeff:     -0.718D-03 0.115D-02 0.573D-02 0.193D-01-0.704D-02-0.355D+00
 Coeff:     -0.381D-01 0.137D+01
 Gap=     0.383 Goal=   None    Shift=    0.000
 RMSDP=8.64D-06 MaxDP=2.56D-04 DE=-6.96D-07 OVMax= 4.37D-04

 Cycle   9  Pass 1  IDiag  1:
 E= -329.636437364978     Delta-E=       -0.000000342661 Rises=F Damp=F
 DIIS: error= 1.24D-05 at cycle   9 NSaved=   9.
 NSaved= 9 IEnMin= 9 EnMin= -329.636437364978     IErMin= 9 ErrMin= 1.24D-05
 ErrMax= 1.24D-05 EMaxC= 1.00D-01 BMatC= 7.84D-09 BMatP= 7.04D-08
 IDIUse=1 WtCom= 1.00D+00 WtEn= 0.00D+00
 Coeff-Com:  0.147D-03-0.266D-03-0.122D-02-0.910D-03 0.111D-01 0.298D-01
 Coeff-Com: -0.125D+00-0.208D+00 0.129D+01
 Coeff:      0.147D-03-0.266D-03-0.122D-02-0.910D-03 0.111D-01 0.298D-01
 Coeff:     -0.125D+00-0.208D+00 0.129D+01
 Gap=     0.383 Goal=   None    Shift=    0.000
 RMSDP=2.74D-06 MaxDP=7.20D-05 DE=-3.43D-07 OVMax= 1.54D-04

 Cycle  10  Pass 1  IDiag  1:
 E= -329.636437406966     Delta-E=       -0.000000041989 Rises=F Damp=F
 DIIS: error= 4.42D-06 at cycle  10 NSaved=  10.
 NSaved=10 IEnMin=10 EnMin= -329.636437406966     IErMin=10 ErrMin= 4.42D-06
 ErrMax= 4.42D-06 EMaxC= 1.00D-01 BMatC= 1.00D-09 BMatP= 7.84D-09
 IDIUse=1 WtCom= 1.00D+00 WtEn= 0.00D+00
 Coeff-Com:  0.122D-03-0.198D-03-0.966D-03-0.259D-02 0.149D-02 0.558D-01
 Coeff-Com: -0.785D-02-0.200D+00 0.385D-01 0.112D+01
 Coeff:      0.122D-03-0.198D-03-0.966D-03-0.259D-02 0.149D-02 0.558D-01
 Coeff:     -0.785D-02-0.200D+00 0.385D-01 0.112D+01
 Gap=     0.383 Goal=   None    Shift=    0.000
 RMSDP=7.79D-07 MaxDP=1.57D-05 DE=-4.20D-08 OVMax= 5.54D-05

 Cycle  11  Pass 1  IDiag  1:
 E= -329.636437411736     Delta-E=       -0.000000004770 Rises=F Damp=F
 DIIS: error= 1.10D-06 at cycle  11 NSaved=  11.
 NSaved=11 IEnMin=11 EnMin= -329.636437411736     IErMin=11 ErrMin= 1.10D-06
 ErrMax= 1.10D-06 EMaxC= 1.00D-01 BMatC= 1.76D-10 BMatP= 1.00D-09
 IDIUse=1 WtCom= 1.00D+00 WtEn= 0.00D+00
 Coeff-Com: -0.289D-04 0.519D-04 0.238D-03 0.459D-03-0.214D-02-0.746D-02
 Coeff-Com:  0.184D-01 0.521D-01-0.253D+00 0.428D-01 0.115D+01
 Coeff:     -0.289D-04 0.519D-04 0.238D-03 0.459D-03-0.214D-02-0.746D-02
 Coeff:      0.184D-01 0.521D-01-0.253D+00 0.428D-01 0.115D+01
 Gap=     0.383 Goal=   None    Shift=    0.000
 RMSDP=3.44D-07 MaxDP=6.95D-06 DE=-4.77D-09 OVMax= 1.82D-05

 Cycle  12  Pass 1  IDiag  1:
 E= -329.636437412260     Delta-E=       -0.000000000524 Rises=F Damp=F
 DIIS: error= 2.21D-07 at cycle  12 NSaved=  12.
 NSaved=12 IEnMin=12 EnMin= -329.636437412260     IErMin=12 ErrMin= 2.21D-07
 ErrMax= 2.21D-07 EMaxC= 1.00D-01 BMatC= 5.09D-12 BMatP= 1.76D-10
 IDIUse=1 WtCom= 1.00D+00 WtEn= 0.00D+00
 Coeff-Com: -0.626D-05 0.101D-04 0.456D-04 0.153D-03-0.829D-04-0.326D-02
 Coeff-Com: -0.482D-03 0.923D-02 0.502D-02-0.642D-01-0.674D-01 0.112D+01
 Coeff:     -0.626D-05 0.101D-04 0.456D-04 0.153D-03-0.829D-04-0.326D-02
 Coeff:     -0.482D-03 0.923D-02 0.502D-02-0.642D-01-0.674D-01 0.112D+01
 Gap=     0.383 Goal=   None    Shift=    0.000
 RMSDP=1.10D-07 MaxDP=2.81D-06 DE=-5.24D-10 OVMax= 3.69D-06

 Cycle  13  Pass 1  IDiag  1:
 E= -329.636437412278     Delta-E=       -0.000000000018 Rises=F Damp=F
 DIIS: error= 5.86D-08 at cycle  13 NSaved=  13.
 NSaved=13 IEnMin=13 EnMin= -329.636437412278     IErMin=13 ErrMin= 5.86D-08
 ErrMax= 5.86D-08 EMaxC= 1.00D-01 BMatC= 4.65D-13 BMatP= 5.09D-12
 IDIUse=1 WtCom= 1.00D+00 WtEn= 0.00D+00
 Coeff-Com:  0.184D-06-0.553D-06-0.340D-05 0.498D-05 0.807D-04-0.121D-03
 Coeff-Com: -0.766D-03-0.372D-03 0.133D-01-0.867D-02-0.711D-01 0.173D+00
 Coeff-Com:  0.894D+00
 Coeff:      0.184D-06-0.553D-06-0.340D-05 0.498D-05 0.807D-04-0.121D-03
 Coeff:     -0.766D-03-0.372D-03 0.133D-01-0.867D-02-0.711D-01 0.173D+00
 Coeff:      0.894D+00
 Gap=     0.383 Goal=   None    Shift=    0.000
 RMSDP=1.63D-08 MaxDP=4.32D-07 DE=-1.76D-11 OVMax= 5.49D-07

 Cycle  14  Pass 1  IDiag  1:
 E= -329.636437412278     Delta-E=        0.000000000000 Rises=F Damp=F
 DIIS: error= 1.31D-08 at cycle  14 NSaved=  14.
 NSaved=14 IEnMin=14 EnMin= -329.636437412278     IErMin=14 ErrMin= 1.31D-08
 ErrMax= 1.31D-08 EMaxC= 1.00D-01 BMatC= 2.86D-14 BMatP= 4.65D-13
 IDIUse=1 WtCom= 1.00D+00 WtEn= 0.00D+00
 Coeff-Com:  0.517D-06-0.843D-06-0.448D-05-0.120D-04 0.115D-04 0.276D-03
 Coeff-Com: -0.911D-04-0.923D-03-0.128D-03 0.562D-02-0.673D-03-0.823D-01
 Coeff-Com:  0.783D-02 0.107D+01
 Coeff:      0.517D-06-0.843D-06-0.448D-05-0.120D-04 0.115D-04 0.276D-03
 Coeff:     -0.911D-04-0.923D-03-0.128D-03 0.562D-02-0.673D-03-0.823D-01
 Coeff:      0.783D-02 0.107D+01
 Gap=     0.383 Goal=   None    Shift=    0.000
 RMSDP=5.98D-09 MaxDP=1.74D-07 DE=-3.41D-13 OVMax= 1.68D-07

 SCF Done:  E(RHF) =  -329.636437412     A.U. after   14 cycles
             Convg  =    0.5980D-08             -V/T =  2.0011
 KE= 3.292651755182D+02 PE=-1.312178792996D+03 EE= 3.840766897740D+02
 Leave Link  502 at Fri Dec  3 14:17:55 2021, MaxMem=  498073600 cpu:      56.9
 (Enter /apps/software//g09/l801.exe)
 ExpMin= 3.60D-02 ExpMax= 1.14D+04 ExpMxC= 1.72D+03 IAcc=3 IRadAn=         5 AccDes= 0.00D+00
 HarFok:  IExCor=  205 AccDes= 0.00D+00 IRadAn=         5 IDoV=-2
 ScaDFX=  1.000000  1.000000  1.000000  1.000000
 Largest valence mixing into a core orbital is  1.38D-04
 Largest core mixing into a valence orbital is  4.34D-05
 Range of M.O.s used for correlation:     8   189
 NBasis=   189 NAE=    25 NBE=    25 NFC=     7 NFV=     0
 NROrb=    182 NOA=    18 NOB=    18 NVA=   164 NVB=   164

 **** Warning!!: The largest alpha MO coefficient is  0.17842241D+03

 Leave Link  801 at Fri Dec  3 14:17:55 2021, MaxMem=  498073600 cpu:       1.2
 (Enter /apps/software//g09/l906.exe)
 Frozen-core derivative calculation, NFC=   7 NFV=   0.
 FulOut=F Deriv=T AODrv=F NAtomX=    12
   MMem=         226  MDisk=          18 MDiskD=          18
  W3Min=      926100 MinDsk=     1341934 NBas6D=         196
 NBas2D=       19594    NTT=       19306    LW2=     2040000
    MDV=   497633606 MDiskM=       35121 NBas2p=       11161
 Fully in-core method, ICMem=   391566776.
 IMap=   1   2   3   4   5   6   7   8   9  10  11  12  13  14  15  16  17  18  19  20
 IMap=  21  22  23  24  25
 JobTyp=1 Pass  1 fully in-core, NPsUse=  6.
 Compute canonical integrals, IntTyp=   4.
 Symmetry not used in FoFDir.
 MinBra= 0 MaxBra= 2 Meth= 1.
 IRaf=       0 NMat=   1 IRICut=       1 DoRegI=T DoRafI=F ISym2E= 0 JSym2E=0.
 Spin components of T(2) and E(2):
     alpha-alpha T2 =       0.4737364873D-01 E2=     -0.1368619310D+00
     alpha-beta  T2 =       0.2459447052D+00 E2=     -0.7521058624D+00
     beta-beta   T2 =       0.4737364873D-01 E2=     -0.1368619310D+00
 The integrals were generated   1 times.
 ANorm=    0.1157882551D+01
 E2 =    -0.1025829724D+01 EUMP2 =    -0.33066226713670D+03
 Leave Link  906 at Fri Dec  3 14:18:53 2021, MaxMem=  498073600 cpu:     344.3
 (Enter /apps/software//g09/l1002.exe)
 Minotr:  Closed shell wavefunction.
          Computing MP2/KS-MP2 derivatives.
          Using Z-Vector for PSCF gradient.
          Skipping F1 and S1 gradient terms here.
          Frozen-core window.
          Direct CPHF calculation.
          Differentiating once with respect to electric field.
                with respect to dipole field.
          Electric field/nuclear overlap derivatives assumed to be zero.
          Using symmetry in CPHF.
          Requested convergence is 1.0D-10 RMS, and 1.0D-09 maximum.
          NewPWx=F KeepS1=T KeepF1=T KeepIn=T MapXYZ=F SortEE=F KeepMc=T.
          MDV=     498073500 using IRadAn=       0.
          Keep R1 ints in memory in canonical form, NReq=187192487.
 Symmetry not used in FoFDir.
 MinBra= 0 MaxBra= 2 Meth= 1.
 IRaf=       0 NMat=   1 IRICut=       1 DoRegI=T DoRafI=F ISym2E= 0 JSym2E=0.
          Solving linear equations separately, MaxMat=       0.
          There are     1 degrees of freedom in the 1st order CPHF.  IDoFFX=0.
 LinEq1:  Iter=  0 NonCon=     1 RMS=3.70D-03 Max=7.02D-02
 AX will form     1 AO Fock derivatives at one time.
 LinEq1:  Iter=  1 NonCon=     1 RMS=9.86D-04 Max=1.15D-02
 LinEq1:  Iter=  2 NonCon=     1 RMS=2.90D-04 Max=5.23D-03
 LinEq1:  Iter=  3 NonCon=     1 RMS=1.10D-04 Max=2.91D-03
 LinEq1:  Iter=  4 NonCon=     1 RMS=4.29D-05 Max=1.05D-03
 LinEq1:  Iter=  5 NonCon=     1 RMS=1.57D-05 Max=4.72D-04
 LinEq1:  Iter=  6 NonCon=     1 RMS=5.75D-06 Max=1.93D-04
 LinEq1:  Iter=  7 NonCon=     1 RMS=1.96D-06 Max=2.67D-05
 LinEq1:  Iter=  8 NonCon=     1 RMS=3.81D-07 Max=4.48D-06
 LinEq1:  Iter=  9 NonCon=     1 RMS=6.25D-08 Max=6.81D-07
 LinEq1:  Iter= 10 NonCon=     1 RMS=1.78D-08 Max=2.98D-07
 LinEq1:  Iter= 11 NonCon=     1 RMS=4.48D-09 Max=5.00D-08
 LinEq1:  Iter= 12 NonCon=     1 RMS=1.01D-09 Max=1.73D-08
 LinEq1:  Iter= 13 NonCon=     1 RMS=2.84D-10 Max=2.71D-09
 LinEq1:  Iter= 14 NonCon=     1 RMS=7.96D-11 Max=1.79D-09
 LinEq1:  Iter= 15 NonCon=     0 RMS=1.28D-11 Max=1.30D-10
 Linear equations converged to 1.000D-10 1.000D-09 after    15 iterations.
 End of Minotr Frequency-dependent properties file   721 does not exist.
 End of Minotr Frequency-dependent properties file   722 does not exist.
 Leave Link 1002 at Fri Dec  3 14:19:03 2021, MaxMem=  498073600 cpu:      61.7
 (Enter /apps/software//g09/l601.exe)
 Copying SCF densities to generalized density rwf, IOpCl= 0 IROHF=0.

 **********************************************************************

            Population analysis using the MP2 density.

 **********************************************************************

 Orbital symmetries:
       Occupied  (A1) (A1) (A1) (B2) (B2) (A1) (A1) (A1) (A1) (B2)
                 (A1) (B2) (A1) (A1) (B2) (B1) (A1) (A1) (B2) (B2)
                 (A1) (B1) (B2) (A2) (B1)
       Virtual   (A1) (B2) (A1) (B2) (A1) (A2) (B1) (A1) (B1) (A2)
                 (A1) (B1) (B2) (A1) (B2) (B2) (A1) (A1) (B1) (B2)
                 (A1) (A2) (B1) (B2) (A1) (B2) (A1) (A1) (B2) (B2)
                 (A1) (A1) (B1) (A1) (B2) (A1) (B1) (A1) (B2) (A1)
                 (A1) (B2) (B2) (B2) (A1) (A1) (A1) (B2) (B1) (A1)
                 (B2) (A1) (A2) (B2) (B1) (A1) (B2) (A2) (B1) (B1)
                 (A1) (B2) (A1) (A1) (B2) (A1) (B2) (A1) (A1) (B2)
                 (A1) (B2) (B2) (A1) (B1) (A1) (B2) (A2) (A2) (B1)
                 (A2) (B1) (A1) (A1) (A1) (B1) (B2) (B2) (A1) (B2)
                 (B1) (A2) (A1) (B1) (A1) (B2) (A1) (B1) (B2) (A2)
                 (B2) (A1) (B2) (B1) (A2) (B2) (A1) (B1) (A1) (B2)
                 (A1) (A2) (A1) (B1) (B2) (A2) (A1) (A1) (B2) (B2)
                 (A1) (A1) (A1) (B2) (A1) (B1) (B2) (A1) (B1) (A2)
                 (B2) (A1) (B1) (A2) (B2) (B1) (B2) (A1) (B2) (A1)
                 (B2) (A1) (A1) (A1) (A2) (A1) (B2) (B1) (A1) (B2)
                 (A1) (B2) (B2) (A1) (B1) (B2) (A1) (A1) (A1) (B2)
                 (A1) (B2) (A1) (A1)
 The electronic state is 1-A1.
 Alpha  occ. eigenvalues --  -26.30794 -11.33435 -11.25567 -11.25561 -11.24992
 Alpha  occ. eigenvalues --  -11.24990 -11.24606  -1.62285  -1.16944  -1.03716
 Alpha  occ. eigenvalues --   -1.02707  -0.85900  -0.84399  -0.74645  -0.70057
 Alpha  occ. eigenvalues --   -0.69020  -0.69017  -0.62762  -0.61032  -0.59823
 Alpha  occ. eigenvalues --   -0.53513  -0.51205  -0.51201  -0.35439  -0.34402
 Alpha virt. eigenvalues --    0.03921   0.04637   0.05234   0.06664   0.07199
 Alpha virt. eigenvalues --    0.09713   0.10837   0.12114   0.12578   0.14718
 Alpha virt. eigenvalues --    0.15176   0.15264   0.15992   0.17779   0.17819
 Alpha virt. eigenvalues --    0.18852   0.18905   0.19311   0.20479   0.20779
 Alpha virt. eigenvalues --    0.20849   0.20890   0.20895   0.22156   0.22700
 Alpha virt. eigenvalues --    0.24630   0.24817   0.27600   0.28412   0.29993
 Alpha virt. eigenvalues --    0.30477   0.32729   0.35808   0.37758   0.39936
 Alpha virt. eigenvalues --    0.41882   0.42338   0.42528   0.42830   0.46164
 Alpha virt. eigenvalues --    0.47580   0.47768   0.51391   0.53971   0.54000
 Alpha virt. eigenvalues --    0.57467   0.64167   0.65769   0.69857   0.70639
 Alpha virt. eigenvalues --    0.71182   0.73207   0.74517   0.74861   0.74875
 Alpha virt. eigenvalues --    0.78226   0.79645   0.80666   0.80907   0.87518
 Alpha virt. eigenvalues --    0.89637   0.93099   0.94044   0.95263   0.98436
 Alpha virt. eigenvalues --    0.98947   1.03159   1.03298   1.06008   1.06676
 Alpha virt. eigenvalues --    1.09458   1.11018   1.12526   1.14292   1.19624
 Alpha virt. eigenvalues --    1.21249   1.21714   1.22793   1.30626   1.33803
 Alpha virt. eigenvalues --    1.37155   1.43961   1.48741   1.59071   1.68839
 Alpha virt. eigenvalues --    1.69430   1.69858   1.76756   1.78226   1.80592
 Alpha virt. eigenvalues --    1.81987   1.82738   1.83992   1.87505   1.89664
 Alpha virt. eigenvalues --    1.90583   1.92869   2.00299   2.01065   2.03931
 Alpha virt. eigenvalues --    2.09557   2.15596   2.21296   2.21409   2.21730
 Alpha virt. eigenvalues --    2.23088   2.24575   2.27461   2.31919   2.33917
 Alpha virt. eigenvalues --    2.36346   2.36601   2.39293   2.58229   2.61247
 Alpha virt. eigenvalues --    2.64171   2.73012   2.76868   2.78052   2.83542
 Alpha virt. eigenvalues --    2.93975   2.96311   2.99540   3.00424   3.02472
 Alpha virt. eigenvalues --    3.02918   3.03672   3.06374   3.14807   3.17665
 Alpha virt. eigenvalues --    3.17824   3.20181   3.26583   3.27830   3.30691
 Alpha virt. eigenvalues --    3.46551   3.54905   3.58087   3.75788   3.77082
 Alpha virt. eigenvalues --    3.89182   3.90251   4.02129   4.12513   4.22786
 Alpha virt. eigenvalues --    4.28829   4.39346   4.43650   4.45088   4.54879
 Alpha virt. eigenvalues --    4.56481   4.58428   5.26247   5.34745   6.96071
 Alpha virt. eigenvalues --    7.08930   7.38921  24.71154  25.07137  25.12816
 Alpha virt. eigenvalues --   25.23387  25.24889  25.34942  68.79748
          Condensed to atoms (all electrons):
              1          2          3          4          5          6
     1  C   12.010939  -4.080038   3.192850  -2.430252   0.958302  -4.157201
     2  C   -4.080038   9.945412  -3.645182   3.012225  -2.430252   3.250607
     3  C    3.192850  -3.645182   9.868304  -3.645182   3.192850  -3.032227
     4  C   -2.430252   3.012225  -3.645182   9.945412  -4.080038   3.250607
     5  C    0.958302  -2.430252   3.192850  -4.080038  12.010939  -4.157201
     6  C   -4.157201   3.250607  -3.032227   3.250607  -4.157201  11.360622
     7  F   -0.271438   0.005581  -0.022629   0.005581  -0.271438   0.492440
     8  H    0.080649  -0.200620   0.568565  -0.200620   0.080649  -0.043937
     9  H    0.678849  -0.182120   0.094393  -0.024293  -0.028084  -0.274653
    10  H   -0.028084  -0.024293   0.094393  -0.182120   0.678849  -0.274653
    11  H   -0.270436   0.593449  -0.229061   0.071630  -0.013645   0.122385
    12  H   -0.013645   0.071630  -0.229061   0.593449  -0.270436   0.122385
              7          8          9         10         11         12
     1  C   -0.271438   0.080649   0.678849  -0.028084  -0.270436  -0.013645
     2  C    0.005581  -0.200620  -0.182120  -0.024293   0.593449   0.071630
     3  C   -0.022629   0.568565   0.094393   0.094393  -0.229061  -0.229061
     4  C    0.005581  -0.200620  -0.024293  -0.182120   0.071630   0.593449
     5  C   -0.271438   0.080649  -0.028084   0.678849  -0.013645  -0.270436
     6  C    0.492440  -0.043937  -0.274653  -0.274653   0.122385   0.122385
     7  F    9.267235   0.000169  -0.019676  -0.019676   0.000573   0.000573
     8  H    0.000169   0.561962   0.001600   0.001600  -0.014985  -0.014985
     9  H   -0.019676   0.001600   0.553795  -0.001920  -0.019519   0.000835
    10  H   -0.019676   0.001600  -0.001920   0.553795   0.000835  -0.019519
    11  H    0.000573  -0.014985  -0.019519   0.000835   0.565307   0.000099
    12  H    0.000573  -0.014985   0.000835  -0.019519   0.000099   0.565307
 Mulliken atomic charges:
              1
     1  C    0.329504
     2  C   -0.316398
     3  C   -0.208013
     4  C   -0.316398
     5  C    0.329504
     6  C   -0.659174
     7  F   -0.167296
     8  H    0.179952
     9  H    0.220792
    10  H    0.220792
    11  H    0.193367
    12  H    0.193367
 Sum of Mulliken atomic charges =   0.00000
 Mulliken charges with hydrogens summed into heavy atoms:
              1
     1  C    0.550296
     2  C   -0.123031
     3  C   -0.028061
     4  C   -0.123031
     5  C    0.550296
     6  C   -0.659174
     7  F   -0.167296
 Sum of Mulliken charges with hydrogens summed into heavy atoms =   0.00000
 Electronic spatial extent (au):  <R**2>=            652.4447
 Charge=              0.0000 electrons
 Dipole moment (field-independent basis, Debye):
    X=              0.0000    Y=              0.0000    Z=             -1.7096  Tot=              1.7096
 Quadrupole moment (field-independent basis, Debye-Ang):
   XX=            -44.1865   YY=            -35.0510   ZZ=            -41.7494
   XY=              0.0000   XZ=              0.0000   YZ=              0.0000
 Traceless Quadrupole moment (field-independent basis, Debye-Ang):
   XX=             -3.8576   YY=              5.2780   ZZ=             -1.4204
   XY=              0.0000   XZ=              0.0000   YZ=              0.0000
 Octapole moment (field-independent basis, Debye-Ang**2):
  XXX=              0.0000  YYY=              0.0000  ZZZ=             -2.5633  XYY=              0.0000
  XXY=              0.0000  XXZ=              9.0888  XZZ=              0.0000  YZZ=              0.0000
  YYZ=              5.0635  XYZ=              0.0000
 Hexadecapole moment (field-independent basis, Debye-Ang**3):
 XXXX=            -51.3220 YYYY=           -272.1430 ZZZZ=           -488.9760 XXXY=              0.0000
 XXXZ=              0.0000 YYYX=              0.0000 YYYZ=              0.0000 ZZZX=              0.0000
 ZZZY=              0.0000 XXYY=            -66.0003 XXZZ=            -95.6495 YYZZ=           -119.8438
 XXYZ=              0.0000 YYXZ=              0.0000 ZZXY=              0.0000
 N-N= 2.692004902918D+02 E-N=-1.312970030753D+03  KE= 3.304979936647D+02
 Symmetry A1   KE= 2.327867135719D+02
 Symmetry A2   KE= 2.298433140454D+00
 Symmetry B1   KE= 1.057584362560D+01
 Symmetry B2   KE= 8.483700332673D+01
 No NMR shielding tensors so no spin-rotation constants.
 Leave Link  601 at Fri Dec  3 14:19:03 2021, MaxMem=  498073600 cpu:       1.4
 (Enter /apps/software//g09/l9999.exe)
 1\1\GINC-DLT17\SP\RMP2-FC\6-311++G(d,p)\C6H5F1\ITAMAR\03-Dec-2021\0\\#
 P MP2/6-311++G** DENSITY=MP2\\X=H\\0,1\C,0,-1.215806,0.25998,0.\C,0,-1
 .20676,-1.134311,0.\C,0,0.,-1.833153,0.\C,0,1.20676,-1.134311,0.\C,0,1
 .215806,0.25998,0.\C,0,0.,0.925809,0.\F,0,0.,2.282918,0.\H,0,0.,-2.916
 547,0.\H,0,-2.138829,0.826056,0.\H,0,2.138829,0.826056,0.\H,0,-2.14728
 9,-1.672892,0.\H,0,2.147289,-1.672892,0.\\Version=EM64L-G09RevA.02\Sta
 te=1-A1\HF=-329.6364374\MP2=-330.6622671\RMSD=5.980e-09\Dipole=0.,-0.6
 725896,0.\Quadrupole=3.9240405,-1.0560452,-2.8679953,0.,0.,0.\PG=C02V 
 [C2(H1C1C1F1),SGV(C4H4)]\\@


 THE HURRIEDER I GO, THE BEHINDER I GET.
 Job cpu time:  0 days  0 hours  7 minutes 50.7 seconds.
 File lengths (MBytes):  RWF=     19 Int=      0 D2E=      0 Chk=      4 Scr=      1
 Normal termination of Gaussian 09 at Fri Dec  3 14:19:03 2021.
