 Entering Gaussian System, Link 0=g09
 Initial command:
 /apps/software//g09/l1.exe /scratch/itamar/2488.cluster.abaxnet/Gau-13591.inp -scrdir=/scratch/itamar/2488.cluster.abaxnet/
 Entering Link 1 = /apps/software//g09/l1.exe PID=     13592.
  
 Copyright (c) 1988,1990,1992,1993,1995,1998,2003,2009, Gaussian, Inc.
                  All Rights Reserved.
  
 This is part of the Gaussian(R) 09 program.  It is based on
 the Gaussian(R) 03 system (copyright 2003, Gaussian, Inc.),
 the Gaussian(R) 98 system (copyright 1998, Gaussian, Inc.),
 the Gaussian(R) 94 system (copyright 1995, Gaussian, Inc.),
 the Gaussian 92(TM) system (copyright 1992, Gaussian, Inc.),
 the Gaussian 90(TM) system (copyright 1990, Gaussian, Inc.),
 the Gaussian 88(TM) system (copyright 1988, Gaussian, Inc.),
 the Gaussian 86(TM) system (copyright 1986, Carnegie Mellon
 University), and the Gaussian 82(TM) system (copyright 1983,
 Carnegie Mellon University). Gaussian is a federally registered
 trademark of Gaussian, Inc.
  
 This software contains proprietary and confidential information,
 including trade secrets, belonging to Gaussian, Inc.
  
 This software is provided under written license and may be
 used, copied, transmitted, or stored only in accord with that
 written license.
  
 The following legend is applicable only to US Government
 contracts under FAR:
  
                    RESTRICTED RIGHTS LEGEND
  
 Use, reproduction and disclosure by the US Government is
 subject to restrictions as set forth in subparagraphs (a)
 and (c) of the Commercial Computer Software - Restricted
 Rights clause in FAR 52.227-19.
  
 Gaussian, Inc.
 340 Quinnipiac St., Bldg. 40, Wallingford CT 06492
  
  
 ---------------------------------------------------------------
 Warning -- This program may not be used in any manner that
 competes with the business of Gaussian, Inc. or will provide
 assistance to any competitor of Gaussian, Inc.  The licensee
 of this program is prohibited from giving any competitor of
 Gaussian, Inc. access to this program.  By using this program,
 the user acknowledges that Gaussian, Inc. is engaged in the
 business of creating and licensing software in the field of
 computational chemistry and represents and warrants to the
 licensee that it is not a competitor of Gaussian, Inc. and that
 it will not use this program in any manner prohibited above.
 ---------------------------------------------------------------
  

 Cite this work as:
 Gaussian 09, Revision A.02,
 M. J. Frisch, G. W. Trucks, H. B. Schlegel, G. E. Scuseria, 
 M. A. Robb, J. R. Cheeseman, G. Scalmani, V. Barone, B. Mennucci, 
 G. A. Petersson, H. Nakatsuji, M. Caricato, X. Li, H. P. Hratchian, 
 A. F. Izmaylov, J. Bloino, G. Zheng, J. L. Sonnenberg, M. Hada, 
 M. Ehara, K. Toyota, R. Fukuda, J. Hasegawa, M. Ishida, T. Nakajima, 
 Y. Honda, O. Kitao, H. Nakai, T. Vreven, J. A. Montgomery, Jr., 
 J. E. Peralta, F. Ogliaro, M. Bearpark, J. J. Heyd, E. Brothers, 
 K. N. Kudin, V. N. Staroverov, R. Kobayashi, J. Normand, 
 K. Raghavachari, A. Rendell, J. C. Burant, S. S. Iyengar, J. Tomasi, 
 M. Cossi, N. Rega, J. M. Millam, M. Klene, J. E. Knox, J. B. Cross, 
 V. Bakken, C. Adamo, J. Jaramillo, R. Gomperts, R. E. Stratmann, 
 O. Yazyev, A. J. Austin, R. Cammi, C. Pomelli, J. W. Ochterski, 
 R. L. Martin, K. Morokuma, V. G. Zakrzewski, G. A. Voth, 
 P. Salvador, J. J. Dannenberg, S. Dapprich, A. D. Daniels, 
 O. Farkas, J. B. Foresman, J. V. Ortiz, J. Cioslowski, 
 and D. J. Fox, Gaussian, Inc., Wallingford CT, 2009.
 
 ******************************************
 Gaussian 09:  EM64L-G09RevA.02 11-Jun-2009
                 3-Dec-2021 
 ******************************************
 %Mem=1600MB
 %NProcShared=4
 Will use up to    4 processors via shared memory.
 %chk=/home/itamar/Aromaticity-test-set/T12-old-T14-Fulvenes/Penta-NH2+/penta-nh2
 p.chk
 -----------------------------
 #P MP2/6-311++G** DENSITY=MP2
 -----------------------------
 1/30=1,38=1/1;
 2/12=2,17=6,18=5,40=1/2;
 3/5=4,6=6,7=1111,11=9,16=1,25=1,30=1,71=1/1,2,3;
 4//1;
 5/5=2,38=5/2;
 8/6=4,10=2/1;
 9/15=1,16=-3/6;
 10/5=1,13=10/2;
 6/7=2,8=2,9=2,10=2,22=2/1;
 99/5=1,9=1/99;
 Leave Link    1 at Fri Dec  3 17:34:01 2021, MaxMem=  209715200 cpu:       0.1
 (Enter /apps/software//g09/l101.exe)
 ----------
 Penta-Nh2p
 ----------
 Symbolic Z-matrix:
 Charge =  1 Multiplicity = 1
 6                     0.        0.69588   0. 
 6                     1.20267  -0.15643   0. 
 1                     2.22079   0.20295   0. 
 6                     0.75774  -1.42096   0. 
 1                     1.36145  -2.31804   0. 
 6                    -1.20263  -0.15669   0. 
 1                    -2.22075   0.2027    0. 
 6                    -0.7575   -1.4211    0. 
 1                    -1.36098  -2.31834   0. 
 7                    -0.00022   1.99115   0. 
 1                     0.8648    2.52437   0. 
 1                    -0.86544   2.52407   0. 
 
 NAtoms=     12 NQM=     12 NQMF=      0 NMic=      0 NMicF=      0 NTot=     12.
                    Isotopes and Nuclear Properties:
 (Nuclear quadrupole moments (NQMom) in fm**2, nuclear magnetic moments (NMagM)
  in nuclear magnetons)

  Atom         1           2           3           4           5           6           7           8           9          10
 IAtWgt=          12          12           1          12           1          12           1          12           1          14
 AtmWgt=  12.0000000  12.0000000   1.0078250  12.0000000   1.0078250  12.0000000   1.0078250  12.0000000   1.0078250  14.0030740
 NucSpn=           0           0           1           0           1           0           1           0           1           2
 AtZEff=   0.0000000   0.0000000   0.0000000   0.0000000   0.0000000   0.0000000   0.0000000   0.0000000   0.0000000   0.0000000
 NQMom=    0.0000000   0.0000000   0.0000000   0.0000000   0.0000000   0.0000000   0.0000000   0.0000000   0.0000000   2.0440000
 NMagM=    0.0000000   0.0000000   2.7928460   0.0000000   2.7928460   0.0000000   2.7928460   0.0000000   2.7928460   0.4037610

  Atom        11          12
 IAtWgt=           1           1
 AtmWgt=   1.0078250   1.0078250
 NucSpn=           1           1
 AtZEff=   0.0000000   0.0000000
 NQMom=    0.0000000   0.0000000
 NMagM=    2.7928460   2.7928460
 Leave Link  101 at Fri Dec  3 17:34:01 2021, MaxMem=  209715200 cpu:       0.2
 (Enter /apps/software//g09/l202.exe)
                          Input orientation:                          
 ---------------------------------------------------------------------
 Center     Atomic      Atomic             Coordinates (Angstroms)
 Number     Number       Type             X           Y           Z
 ---------------------------------------------------------------------
      1          6           0        0.000000    0.695878    0.000000
      2          6           0        1.202665   -0.156428    0.000000
      3          1           0        2.220793    0.202950    0.000000
      4          6           0        0.757738   -1.420960    0.000000
      5          1           0        1.361452   -2.318039    0.000000
      6          6           0       -1.202625   -0.156686    0.000000
      7          1           0       -2.220751    0.202702    0.000000
      8          6           0       -0.757497   -1.421104    0.000000
      9          1           0       -1.360976   -2.318335    0.000000
     10          7           0       -0.000224    1.991154    0.000000
     11          1           0        0.864800    2.524373    0.000000
     12          1           0       -0.865435    2.524071    0.000000
 ---------------------------------------------------------------------
                    Distance matrix (angstroms):
                    1          2          3          4          5
     1  C    0.000000
     2  C    1.474052   0.000000
     3  H    2.274841   1.079693   0.000000
     4  C    2.248371   1.340523   2.185775   0.000000
     5  H    3.307151   2.167435   2.663429   1.081305   0.000000
     6  C    1.474168   2.405290   3.442256   2.332683   3.353496
     7  H    2.274853   3.442202   4.441544   3.392296   4.380218
     8  C    2.248425   2.332732   3.392309   1.515235   2.300964
     9  H    3.307225   3.353520   4.380177   2.300920   2.722428
    10  N    1.295276   2.461514   2.851419   3.495287   4.519215
    11  H    2.022690   2.702008   2.688442   3.946785   4.867814
    12  H    2.022688   3.385574   3.861658   4.265907   5.329639
                    6          7          8          9         10
     6  C    0.000000
     7  H    1.079695   0.000000
     8  C    1.340482   2.185831   0.000000
     9  H    2.167441   2.663614   1.081300   0.000000
    10  N    2.461501   2.851193   3.495278   4.519219   0.000000
    11  H    3.385605   3.861448   4.265986   5.329719   1.016164
    12  H    2.701880   2.688054   3.946651   4.867695   1.016165
                   11         12
    11  H    0.000000
    12  H    1.730235   0.000000
 Stoichiometry    C5H6N(1+)
 Framework group  CS[SG(C5H6N)]
 Deg. of freedom    21
 Full point group                 CS      NOp   2
 Largest Abelian subgroup         CS      NOp   2
 Largest concise Abelian subgroup C1      NOp   1
                         Standard orientation:                         
 ---------------------------------------------------------------------
 Center     Atomic      Atomic             Coordinates (Angstroms)
 Number     Number       Type             X           Y           Z
 ---------------------------------------------------------------------
      1          6           0        0.000000    0.695878    0.000000
      2          6           0        1.202665   -0.156428    0.000000
      3          1           0        2.220793    0.202950    0.000000
      4          6           0        0.757738   -1.420960    0.000000
      5          1           0        1.361452   -2.318039    0.000000
      6          6           0       -1.202625   -0.156686    0.000000
      7          1           0       -2.220751    0.202702    0.000000
      8          6           0       -0.757497   -1.421104    0.000000
      9          1           0       -1.360976   -2.318335    0.000000
     10          7           0       -0.000224    1.991154    0.000000
     11          1           0        0.864800    2.524373    0.000000
     12          1           0       -0.865435    2.524071    0.000000
 ---------------------------------------------------------------------
 Rotational constants (GHZ):      7.9371806      3.7677992      2.5549555
 Leave Link  202 at Fri Dec  3 17:34:01 2021, MaxMem=  209715200 cpu:       0.0
 (Enter /apps/software//g09/l301.exe)
 Standard basis: 6-311++G(d,p) (5D, 7F)
 Ernie: Thresh=  0.10000D-02 Tol=  0.10000D-05 Strict=F.
 There are   132 symmetry adapted basis functions of A'  symmetry.
 There are    42 symmetry adapted basis functions of A"  symmetry.
 Integral buffers will be    131072 words long.
 Raffenetti 1 integral format.
 Two-electron integral symmetry is turned on.
   174 basis functions,   270 primitive gaussians,   180 cartesian basis functions
    21 alpha electrons       21 beta electrons
       nuclear repulsion energy       210.9795828569 Hartrees.
 IExCor=    0 DFT=F Ex=HF Corr=None ExCW=0 ScaHFX=  1.000000
 ScaDFX=  1.000000  1.000000  1.000000  1.000000 ScalE2=  1.000000  1.000000
 IRadAn=      0 IRanWt=     -1 IRanGd=            0 ICorTp=0
 NAtoms=   12 NActive=   12 NUniq=   12 SFac= 7.50D-01 NAtFMM=   80 NAOKFM=F Big=F
 Leave Link  301 at Fri Dec  3 17:34:01 2021, MaxMem=  209715200 cpu:       0.1
 (Enter /apps/software//g09/l302.exe)
 NPDir=0 NMtPBC=     1 NCelOv=     1 NCel=       1 NClECP=     1 NCelD=      1
         NCelK=      1 NCelE2=     1 NClLst=     1 CellRange=     0.0.
 One-electron integrals computed using PRISM.
 NBasis=   174 RedAO= T  NBF=   132    42
 NBsUse=   174 1.00D-06 NBFU=   132    42
 Leave Link  302 at Fri Dec  3 17:34:01 2021, MaxMem=  209715200 cpu:       0.6
 (Enter /apps/software//g09/l303.exe)
 DipDrv:  MaxL=1.
 Leave Link  303 at Fri Dec  3 17:34:01 2021, MaxMem=  209715200 cpu:       0.1
 (Enter /apps/software//g09/l401.exe)
 Harris functional with IExCor=  205 diagonalized for initial guess.
 ExpMin= 3.60D-02 ExpMax= 6.29D+03 ExpMxC= 9.49D+02 IAcc=3 IRadAn=         0 AccDes= 0.00D+00
 HarFok:  IExCor=  205 AccDes= 0.00D+00 IRadAn=         0 IDoV= 1
 ScaDFX=  1.000000  1.000000  1.000000  1.000000
 FoFCou: FMM=F IPFlag=           0 FMFlag=      100000 FMFlg1=           0
         NFxFlg=           0 DoJE=T BraDBF=F KetDBF=T FulRan=T
         Omega=  0.000000  0.000000  1.000000  0.000000  0.000000 ICntrl=     500 IOpCl=  0
         NMat0=    1 NMatS0=    1 NMatT0=    0 NMatD0=    1 NMtDS0=    0 NMtDT0=    0
         I1Cent=           4 NGrid=           0.
 Petite list used in FoFCou.
 Harris En= -247.433712268697    
 Initial guess orbital symmetries:
       Occupied  (A') (A') (A') (A') (A') (A') (A') (A') (A') (A')
                 (A') (A') (A') (A') (A') (A') (A") (A') (A') (A")
                 (A")
       Virtual   (A") (A") (A") (A') (A') (A') (A') (A') (A') (A')
                 (A") (A') (A') (A") (A') (A") (A') (A') (A') (A')
                 (A') (A') (A") (A') (A') (A") (A') (A') (A") (A')
                 (A') (A') (A') (A') (A') (A') (A') (A') (A') (A')
                 (A') (A') (A') (A') (A') (A') (A") (A') (A') (A")
                 (A") (A') (A") (A") (A') (A') (A') (A') (A') (A')
                 (A') (A') (A') (A') (A") (A') (A') (A') (A') (A')
                 (A') (A") (A") (A") (A') (A') (A") (A") (A") (A')
                 (A') (A') (A') (A') (A') (A') (A") (A") (A') (A')
                 (A") (A') (A") (A") (A') (A") (A') (A") (A') (A')
                 (A') (A') (A') (A') (A') (A") (A") (A') (A") (A')
                 (A') (A') (A') (A") (A') (A") (A') (A") (A') (A')
                 (A") (A') (A") (A') (A') (A') (A') (A") (A") (A')
                 (A') (A') (A') (A') (A') (A') (A') (A') (A') (A")
                 (A') (A') (A') (A') (A') (A') (A') (A') (A') (A')
                 (A') (A') (A')
 The electronic state of the initial guess is 1-A'.
 Leave Link  401 at Fri Dec  3 17:34:02 2021, MaxMem=  209715200 cpu:       1.8
 (Enter /apps/software//g09/l502.exe)
 Closed shell SCF:
 Requested convergence on RMS density matrix=1.00D-08 within 128 cycles.
 Requested convergence on MAX density matrix=1.00D-06.
 Requested convergence on             energy=1.00D-06.
 No special actions if energy rises.
 Using DIIS extrapolation, IDIIS=  1040.
 Integral symmetry usage will be decided dynamically.
 Keep R1 ints in memory in canonical form, NReq=135772825.
 IEnd=      117836 IEndB=      117836 NGot=   209715200 MDV=    76956362
 LenX=    76956362 LenY=    76923521
 Symmetry not used in FoFDir.
 MinBra= 0 MaxBra= 2 Meth= 1.
 IRaf=       0 NMat=   1 IRICut=       1 DoRegI=T DoRafI=F ISym2E= 0 JSym2E=0.

 Cycle   1  Pass 1  IDiag  1:
 E= -246.846388321284    
 DIIS: error= 6.88D-02 at cycle   1 NSaved=   1.
 NSaved= 1 IEnMin= 1 EnMin= -246.846388321284     IErMin= 1 ErrMin= 6.88D-02
 ErrMax= 6.88D-02 EMaxC= 1.00D-01 BMatC= 4.72D-01 BMatP= 4.72D-01
 IDIUse=3 WtCom= 3.12D-01 WtEn= 6.88D-01
 Coeff-Com:  0.100D+01
 Coeff-En:   0.100D+01
 Coeff:      0.100D+01
 Gap=     0.312 Goal=   None    Shift=    0.000
 GapD=    0.312 DampG=1.000 DampE=0.500 DampFc=0.5000 IDamp=-1.
 Damping current iteration by 5.00D-01
 RMSDP=1.16D-02 MaxDP=5.60D-01              OVMax= 1.37D-01

 Cycle   2  Pass 1  IDiag  1:
 E= -246.963875032186     Delta-E=       -0.117486710902 Rises=F Damp=T
 DIIS: error= 2.80D-02 at cycle   2 NSaved=   2.
 NSaved= 2 IEnMin= 2 EnMin= -246.963875032186     IErMin= 2 ErrMin= 2.80D-02
 ErrMax= 2.80D-02 EMaxC= 1.00D-01 BMatC= 1.11D-01 BMatP= 4.72D-01
 IDIUse=3 WtCom= 7.20D-01 WtEn= 2.80D-01
 Coeff-Com: -0.798D+00 0.180D+01
 Coeff-En:   0.000D+00 0.100D+01
 Coeff:     -0.574D+00 0.157D+01
 Gap=     0.357 Goal=   None    Shift=    0.000
 RMSDP=9.29D-03 MaxDP=4.49D-01 DE=-1.17D-01 OVMax= 4.39D-02

 Cycle   3  Pass 1  IDiag  1:
 E= -247.073277576638     Delta-E=       -0.109402544452 Rises=F Damp=F
 DIIS: error= 5.73D-03 at cycle   3 NSaved=   3.
 NSaved= 3 IEnMin= 3 EnMin= -247.073277576638     IErMin= 3 ErrMin= 5.73D-03
 ErrMax= 5.73D-03 EMaxC= 1.00D-01 BMatC= 1.36D-03 BMatP= 1.11D-01
 IDIUse=3 WtCom= 9.43D-01 WtEn= 5.73D-02
 Coeff-Com: -0.122D+00 0.208D+00 0.914D+00
 Coeff-En:   0.000D+00 0.000D+00 0.100D+01
 Coeff:     -0.115D+00 0.196D+00 0.919D+00
 Gap=     0.351 Goal=   None    Shift=    0.000
 RMSDP=6.97D-04 MaxDP=2.88D-02 DE=-1.09D-01 OVMax= 2.34D-02

 Cycle   4  Pass 1  IDiag  1:
 E= -247.074980374258     Delta-E=       -0.001702797621 Rises=F Damp=F
 DIIS: error= 1.53D-03 at cycle   4 NSaved=   4.
 NSaved= 4 IEnMin= 4 EnMin= -247.074980374258     IErMin= 4 ErrMin= 1.53D-03
 ErrMax= 1.53D-03 EMaxC= 1.00D-01 BMatC= 2.67D-04 BMatP= 1.36D-03
 IDIUse=3 WtCom= 9.85D-01 WtEn= 1.53D-02
 Coeff-Com: -0.187D-01 0.189D-01 0.294D+00 0.706D+00
 Coeff-En:   0.000D+00 0.000D+00 0.000D+00 0.100D+01
 Coeff:     -0.184D-01 0.187D-01 0.289D+00 0.711D+00
 Gap=     0.353 Goal=   None    Shift=    0.000
 RMSDP=4.91D-04 MaxDP=1.92D-02 DE=-1.70D-03 OVMax= 3.51D-03

 Cycle   5  Pass 1  IDiag  1:
 E= -247.075268464941     Delta-E=       -0.000288090683 Rises=F Damp=F
 DIIS: error= 1.11D-03 at cycle   5 NSaved=   5.
 NSaved= 5 IEnMin= 5 EnMin= -247.075268464941     IErMin= 5 ErrMin= 1.11D-03
 ErrMax= 1.11D-03 EMaxC= 1.00D-01 BMatC= 2.18D-05 BMatP= 2.67D-04
 IDIUse=3 WtCom= 9.89D-01 WtEn= 1.11D-02
 Coeff-Com:  0.189D-01-0.316D-01-0.147D+00-0.127D+00 0.129D+01
 Coeff-En:   0.000D+00 0.000D+00 0.000D+00 0.000D+00 0.100D+01
 Coeff:      0.187D-01-0.313D-01-0.146D+00-0.126D+00 0.128D+01
 Gap=     0.354 Goal=   None    Shift=    0.000
 RMSDP=3.05D-04 MaxDP=1.28D-02 DE=-2.88D-04 OVMax= 5.75D-03

 Cycle   6  Pass 1  IDiag  1:
 E= -247.075352285526     Delta-E=       -0.000083820585 Rises=F Damp=F
 DIIS: error= 1.99D-04 at cycle   6 NSaved=   6.
 NSaved= 6 IEnMin= 6 EnMin= -247.075352285526     IErMin= 6 ErrMin= 1.99D-04
 ErrMax= 1.99D-04 EMaxC= 1.00D-01 BMatC= 3.72D-06 BMatP= 2.18D-05
 IDIUse=3 WtCom= 9.98D-01 WtEn= 1.99D-03
 Coeff-Com: -0.411D-04 0.919D-03-0.350D-02-0.104D+00-0.415D-01 0.115D+01
 Coeff-En:   0.000D+00 0.000D+00 0.000D+00 0.000D+00 0.000D+00 0.100D+01
 Coeff:     -0.410D-04 0.917D-03-0.349D-02-0.104D+00-0.414D-01 0.115D+01
 Gap=     0.355 Goal=   None    Shift=    0.000
 RMSDP=7.58D-05 MaxDP=2.54D-03 DE=-8.38D-05 OVMax= 1.68D-03

 Cycle   7  Pass 1  IDiag  1:
 E= -247.075361946441     Delta-E=       -0.000009660915 Rises=F Damp=F
 DIIS: error= 6.66D-05 at cycle   7 NSaved=   7.
 NSaved= 7 IEnMin= 7 EnMin= -247.075361946441     IErMin= 7 ErrMin= 6.66D-05
 ErrMax= 6.66D-05 EMaxC= 1.00D-01 BMatC= 5.02D-07 BMatP= 3.72D-06
 IDIUse=1 WtCom= 1.00D+00 WtEn= 0.00D+00
 Coeff-Com: -0.242D-02 0.422D-02 0.192D-01-0.100D-01-0.143D+00 0.644D-01
 Coeff-Com:  0.107D+01
 Coeff:     -0.242D-02 0.422D-02 0.192D-01-0.100D-01-0.143D+00 0.644D-01
 Coeff:      0.107D+01
 Gap=     0.355 Goal=   None    Shift=    0.000
 RMSDP=4.17D-05 MaxDP=2.09D-03 DE=-9.66D-06 OVMax= 7.15D-04

 Cycle   8  Pass 1  IDiag  1:
 E= -247.075363097453     Delta-E=       -0.000001151012 Rises=F Damp=F
 DIIS: error= 4.51D-05 at cycle   8 NSaved=   8.
 NSaved= 8 IEnMin= 8 EnMin= -247.075363097453     IErMin= 8 ErrMin= 4.51D-05
 ErrMax= 4.51D-05 EMaxC= 1.00D-01 BMatC= 7.10D-08 BMatP= 5.02D-07
 IDIUse=1 WtCom= 1.00D+00 WtEn= 0.00D+00
 Coeff-Com: -0.486D-03 0.719D-03 0.505D-02 0.122D-01-0.101D-01-0.200D+00
 Coeff-Com:  0.275D+00 0.918D+00
 Coeff:     -0.486D-03 0.719D-03 0.505D-02 0.122D-01-0.101D-01-0.200D+00
 Coeff:      0.275D+00 0.918D+00
 Gap=     0.355 Goal=   None    Shift=    0.000
 RMSDP=6.72D-06 MaxDP=2.68D-04 DE=-1.15D-06 OVMax= 2.20D-04

 Cycle   9  Pass 1  IDiag  1:
 E= -247.075363228544     Delta-E=       -0.000000131091 Rises=F Damp=F
 DIIS: error= 6.28D-06 at cycle   9 NSaved=   9.
 NSaved= 9 IEnMin= 9 EnMin= -247.075363228544     IErMin= 9 ErrMin= 6.28D-06
 ErrMax= 6.28D-06 EMaxC= 1.00D-01 BMatC= 2.54D-09 BMatP= 7.10D-08
 IDIUse=1 WtCom= 1.00D+00 WtEn= 0.00D+00
 Coeff-Com:  0.253D-03-0.422D-03-0.215D-02-0.347D-02 0.135D-01 0.319D-01
 Coeff-Com: -0.113D+00-0.203D+00 0.128D+01
 Coeff:      0.253D-03-0.422D-03-0.215D-02-0.347D-02 0.135D-01 0.319D-01
 Coeff:     -0.113D+00-0.203D+00 0.128D+01
 Gap=     0.355 Goal=   None    Shift=    0.000
 RMSDP=3.99D-06 MaxDP=2.14D-04 DE=-1.31D-07 OVMax= 6.47D-05

 Cycle  10  Pass 1  IDiag  1:
 E= -247.075363235975     Delta-E=       -0.000000007431 Rises=F Damp=F
 DIIS: error= 1.59D-06 at cycle  10 NSaved=  10.
 NSaved=10 IEnMin=10 EnMin= -247.075363235975     IErMin=10 ErrMin= 1.59D-06
 ErrMax= 1.59D-06 EMaxC= 1.00D-01 BMatC= 1.45D-10 BMatP= 2.54D-09
 IDIUse=1 WtCom= 1.00D+00 WtEn= 0.00D+00
 Coeff-Com: -0.147D-05 0.359D-05 0.119D-03-0.241D-03-0.123D-02 0.335D-02
 Coeff-Com:  0.973D-02-0.191D-01-0.244D+00 0.125D+01
 Coeff:     -0.147D-05 0.359D-05 0.119D-03-0.241D-03-0.123D-02 0.335D-02
 Coeff:      0.973D-02-0.191D-01-0.244D+00 0.125D+01
 Gap=     0.355 Goal=   None    Shift=    0.000
 RMSDP=9.45D-07 MaxDP=4.95D-05 DE=-7.43D-09 OVMax= 1.52D-05

 Cycle  11  Pass 1  IDiag  1:
 E= -247.075363236415     Delta-E=       -0.000000000441 Rises=F Damp=F
 DIIS: error= 3.64D-07 at cycle  11 NSaved=  11.
 NSaved=11 IEnMin=11 EnMin= -247.075363236415     IErMin=11 ErrMin= 3.64D-07
 ErrMax= 3.64D-07 EMaxC= 1.00D-01 BMatC= 1.12D-11 BMatP= 1.45D-10
 IDIUse=1 WtCom= 1.00D+00 WtEn= 0.00D+00
 Coeff-Com: -0.105D-04 0.173D-04 0.126D-03 0.121D-03-0.728D-03-0.153D-02
 Coeff-Com:  0.833D-02 0.606D-02-0.966D-01 0.143D+00 0.941D+00
 Coeff:     -0.105D-04 0.173D-04 0.126D-03 0.121D-03-0.728D-03-0.153D-02
 Coeff:      0.833D-02 0.606D-02-0.966D-01 0.143D+00 0.941D+00
 Gap=     0.355 Goal=   None    Shift=    0.000
 RMSDP=8.38D-08 MaxDP=2.60D-06 DE=-4.41D-10 OVMax= 2.46D-06

 Cycle  12  Pass 1  IDiag  1:
 E= -247.075363236439     Delta-E=       -0.000000000024 Rises=F Damp=F
 DIIS: error= 1.33D-07 at cycle  12 NSaved=  12.
 NSaved=12 IEnMin=12 EnMin= -247.075363236439     IErMin=12 ErrMin= 1.33D-07
 ErrMax= 1.33D-07 EMaxC= 1.00D-01 BMatC= 1.33D-12 BMatP= 1.12D-11
 IDIUse=1 WtCom= 1.00D+00 WtEn= 0.00D+00
 Coeff-Com:  0.582D-06-0.121D-05-0.127D-04 0.129D-04 0.152D-03-0.552D-03
 Coeff-Com: -0.702D-03 0.103D-02 0.315D-01-0.153D+00-0.429D-01 0.116D+01
 Coeff:      0.582D-06-0.121D-05-0.127D-04 0.129D-04 0.152D-03-0.552D-03
 Coeff:     -0.702D-03 0.103D-02 0.315D-01-0.153D+00-0.429D-01 0.116D+01
 Gap=     0.355 Goal=   None    Shift=    0.000
 RMSDP=4.48D-08 MaxDP=2.02D-06 DE=-2.39D-11 OVMax= 1.47D-06

 Cycle  13  Pass 1  IDiag  1:
 E= -247.075363236442     Delta-E=       -0.000000000003 Rises=F Damp=F
 DIIS: error= 3.54D-08 at cycle  13 NSaved=  13.
 NSaved=13 IEnMin=13 EnMin= -247.075363236442     IErMin=13 ErrMin= 3.54D-08
 ErrMax= 3.54D-08 EMaxC= 1.00D-01 BMatC= 7.35D-14 BMatP= 1.33D-12
 IDIUse=1 WtCom= 1.00D+00 WtEn= 0.00D+00
 Coeff-Com:  0.585D-06-0.954D-06-0.545D-05-0.150D-04 0.252D-04 0.209D-03
 Coeff-Com: -0.275D-03-0.111D-02 0.412D-03 0.244D-01-0.594D-01-0.263D+00
 Coeff-Com:  0.130D+01
 Coeff:      0.585D-06-0.954D-06-0.545D-05-0.150D-04 0.252D-04 0.209D-03
 Coeff:     -0.275D-03-0.111D-02 0.412D-03 0.244D-01-0.594D-01-0.263D+00
 Coeff:      0.130D+01
 Gap=     0.355 Goal=   None    Shift=    0.000
 RMSDP=2.22D-08 MaxDP=1.14D-06 DE=-2.96D-12 OVMax= 3.08D-07

 Cycle  14  Pass 1  IDiag  1:
 E= -247.075363236443     Delta-E=       -0.000000000001 Rises=F Damp=F
 DIIS: error= 5.81D-09 at cycle  14 NSaved=  14.
 NSaved=14 IEnMin=14 EnMin= -247.075363236443     IErMin=14 ErrMin= 5.81D-09
 ErrMax= 5.81D-09 EMaxC= 1.00D-01 BMatC= 2.03D-15 BMatP= 7.35D-14
 IDIUse=1 WtCom= 1.00D+00 WtEn= 0.00D+00
 Coeff-Com: -0.192D-06 0.327D-06 0.211D-05 0.330D-05-0.121D-04-0.425D-04
 Coeff-Com:  0.128D-03 0.203D-03-0.125D-02-0.987D-03 0.184D-01 0.239D-01
 Coeff-Com: -0.346D+00 0.131D+01
 Coeff:     -0.192D-06 0.327D-06 0.211D-05 0.330D-05-0.121D-04-0.425D-04
 Coeff:      0.128D-03 0.203D-03-0.125D-02-0.987D-03 0.184D-01 0.239D-01
 Coeff:     -0.346D+00 0.131D+01
 Gap=     0.355 Goal=   None    Shift=    0.000
 RMSDP=5.05D-09 MaxDP=2.46D-07 DE=-6.82D-13 OVMax= 3.87D-08

 SCF Done:  E(RHF) =  -247.075363236     A.U. after   14 cycles
             Convg  =    0.5052D-08             -V/T =  2.0013
 KE= 2.467469743287D+02 PE=-9.885285151334D+02 EE= 2.837265947114D+02
 Leave Link  502 at Fri Dec  3 17:34:08 2021, MaxMem=  209715200 cpu:      24.3
 (Enter /apps/software//g09/l801.exe)
 ExpMin= 3.60D-02 ExpMax= 6.29D+03 ExpMxC= 9.49D+02 IAcc=3 IRadAn=         5 AccDes= 0.00D+00
 HarFok:  IExCor=  205 AccDes= 0.00D+00 IRadAn=         5 IDoV=-2
 ScaDFX=  1.000000  1.000000  1.000000  1.000000
 Largest valence mixing into a core orbital is  1.46D-04
 Largest core mixing into a valence orbital is  4.54D-05
 Range of M.O.s used for correlation:     7   174
 NBasis=   174 NAE=    21 NBE=    21 NFC=     6 NFV=     0
 NROrb=    168 NOA=    15 NOB=    15 NVA=   153 NVB=   153

 **** Warning!!: The largest alpha MO coefficient is  0.12522322D+03

 Leave Link  801 at Fri Dec  3 17:34:08 2021, MaxMem=  209715200 cpu:       0.9
 (Enter /apps/software//g09/l906.exe)
 Frozen-core derivative calculation, NFC=   6 NFV=   0.
 FulOut=F Deriv=T AODrv=F NAtomX=    12
   MMem=          70  MDisk=          15 MDiskD=          15
  W3Min=      657720 MinDsk=     1009670 NBas6D=         180
 NBas2D=       16542    NTT=       16290    LW2=     2040000
    MDV=   209319755 MDiskM=       15996 NBas2p=       16365
 Fully direct method using O(ONN) memory.
 IMap=   1   2   3   4   5   6   7   8   9  10  11  12  13  14  15  16  17  18  19  20
 IMap=  21
 JobTyp=1 Pass  1:  I=   7 to  21 NPSUse=  4 ParTrn=T ParDer=T DoDerP=T.
 Spin components of T(2) and E(2):
     alpha-alpha T2 =       0.3707179919D-01 E2=     -0.1055201321D+00
     alpha-beta  T2 =       0.2172086526D+00 E2=     -0.6259184310D+00
     beta-beta   T2 =       0.3707179919D-01 E2=     -0.1055201321D+00
 The integrals were generated   1 times.
 ANorm=    0.1136376809D+01
 E2 =    -0.8369586951D+00 EUMP2 =    -0.24791232193156D+03
 Leave Link  906 at Fri Dec  3 17:34:19 2021, MaxMem=  209715200 cpu:      41.8
 (Enter /apps/software//g09/l1002.exe)
 Minotr:  Closed shell wavefunction.
          Computing MP2/KS-MP2 derivatives.
          Using Z-Vector for PSCF gradient.
          Skipping F1 and S1 gradient terms here.
          Frozen-core window.
          Direct CPHF calculation.
          Differentiating once with respect to electric field.
                with respect to dipole field.
          Electric field/nuclear overlap derivatives assumed to be zero.
          Using symmetry in CPHF.
          Requested convergence is 1.0D-10 RMS, and 1.0D-09 maximum.
          NewPWx=F KeepS1=T KeepF1=T KeepIn=T MapXYZ=F SortEE=F KeepMc=T.
          MDV=     209715100 using IRadAn=       0.
          Keep R1 ints in memory in canonical form, NReq=133511598.
 Symmetry not used in FoFDir.
 MinBra= 0 MaxBra= 2 Meth= 1.
 IRaf=       0 NMat=   1 IRICut=       1 DoRegI=T DoRafI=F ISym2E= 0 JSym2E=0.
          Solving linear equations separately, MaxMat=       0.
          There are     1 degrees of freedom in the 1st order CPHF.  IDoFFX=0.
 LinEq1:  Iter=  0 NonCon=     1 RMS=4.54D-03 Max=1.12D-01
 AX will form     1 AO Fock derivatives at one time.
 LinEq1:  Iter=  1 NonCon=     1 RMS=1.12D-03 Max=1.18D-02
 LinEq1:  Iter=  2 NonCon=     1 RMS=4.92D-04 Max=1.43D-02
 LinEq1:  Iter=  3 NonCon=     1 RMS=1.44D-04 Max=1.41D-03
 LinEq1:  Iter=  4 NonCon=     1 RMS=6.21D-05 Max=1.64D-03
 LinEq1:  Iter=  5 NonCon=     1 RMS=1.44D-05 Max=2.09D-04
 LinEq1:  Iter=  6 NonCon=     1 RMS=5.69D-06 Max=1.70D-04
 LinEq1:  Iter=  7 NonCon=     1 RMS=1.94D-06 Max=3.74D-05
 LinEq1:  Iter=  8 NonCon=     1 RMS=4.44D-07 Max=5.97D-06
 LinEq1:  Iter=  9 NonCon=     1 RMS=1.35D-07 Max=1.95D-06
 LinEq1:  Iter= 10 NonCon=     1 RMS=2.65D-08 Max=2.90D-07
 LinEq1:  Iter= 11 NonCon=     1 RMS=5.10D-09 Max=9.18D-08
 LinEq1:  Iter= 12 NonCon=     1 RMS=1.19D-09 Max=4.40D-08
 LinEq1:  Iter= 13 NonCon=     1 RMS=2.74D-10 Max=8.29D-09
 LinEq1:  Iter= 14 NonCon=     0 RMS=5.16D-11 Max=7.24D-10
 Linear equations converged to 1.000D-10 1.000D-09 after    14 iterations.
 End of Minotr Frequency-dependent properties file   721 does not exist.
 End of Minotr Frequency-dependent properties file   722 does not exist.
 Leave Link 1002 at Fri Dec  3 17:34:25 2021, MaxMem=  209715200 cpu:      25.4
 (Enter /apps/software//g09/l601.exe)
 Copying SCF densities to generalized density rwf, IOpCl= 0 IROHF=0.

 **********************************************************************

            Population analysis using the MP2 density.

 **********************************************************************

 Orbital symmetries:
       Occupied  (A') (A') (A') (A') (A') (A') (A') (A') (A') (A')
                 (A') (A') (A') (A') (A') (A') (A") (A') (A') (A")
                 (A")
       Virtual   (A") (A') (A') (A') (A') (A') (A") (A') (A') (A")
                 (A") (A') (A") (A') (A") (A') (A') (A') (A') (A')
                 (A") (A') (A') (A') (A") (A') (A') (A') (A") (A')
                 (A') (A') (A') (A') (A') (A') (A') (A') (A') (A')
                 (A') (A') (A') (A') (A') (A') (A") (A') (A') (A')
                 (A") (A") (A') (A') (A") (A") (A') (A') (A') (A')
                 (A') (A') (A') (A") (A') (A') (A') (A') (A') (A')
                 (A') (A") (A') (A') (A") (A") (A") (A") (A") (A')
                 (A') (A') (A') (A') (A') (A") (A") (A') (A') (A')
                 (A") (A') (A") (A') (A") (A') (A") (A") (A') (A')
                 (A') (A') (A') (A') (A') (A") (A") (A') (A") (A')
                 (A') (A') (A") (A') (A") (A') (A') (A') (A') (A')
                 (A") (A') (A') (A') (A") (A") (A') (A') (A') (A")
                 (A") (A') (A') (A') (A') (A') (A') (A') (A') (A")
                 (A') (A') (A') (A') (A') (A') (A') (A') (A') (A')
                 (A') (A') (A')
 The electronic state is 1-A'.
 Alpha  occ. eigenvalues --  -15.84739 -11.55884 -11.46040 -11.45976 -11.43149
 Alpha  occ. eigenvalues --  -11.43146  -1.50515  -1.35981  -1.19307  -1.13258
 Alpha  occ. eigenvalues --   -0.99594  -0.99588  -0.91941  -0.90389  -0.80736
 Alpha  occ. eigenvalues --   -0.78070  -0.76547  -0.72965  -0.72570  -0.63407
 Alpha  occ. eigenvalues --   -0.52616
 Alpha virt. eigenvalues --   -0.17117  -0.09109  -0.06597  -0.06520  -0.04319
 Alpha virt. eigenvalues --   -0.04080  -0.02387  -0.02066  -0.01011  -0.00071
 Alpha virt. eigenvalues --    0.00543   0.01295   0.02253   0.03303   0.03437
 Alpha virt. eigenvalues --    0.04419   0.05297   0.06174   0.06193   0.07465
 Alpha virt. eigenvalues --    0.08212   0.08244   0.08636   0.09209   0.10578
 Alpha virt. eigenvalues --    0.11081   0.12509   0.13087   0.13239   0.13995
 Alpha virt. eigenvalues --    0.14966   0.15678   0.18770   0.19339   0.21579
 Alpha virt. eigenvalues --    0.21915   0.23765   0.23809   0.28647   0.28963
 Alpha virt. eigenvalues --    0.31167   0.34676   0.40421   0.43889   0.45459
 Alpha virt. eigenvalues --    0.48130   0.52844   0.53180   0.53884   0.55408
 Alpha virt. eigenvalues --    0.56414   0.57461   0.60930   0.61986   0.63939
 Alpha virt. eigenvalues --    0.65030   0.69900   0.70036   0.71314   0.74053
 Alpha virt. eigenvalues --    0.79393   0.81789   0.82569   0.83557   0.84875
 Alpha virt. eigenvalues --    0.86011   0.87397   0.89242   0.91063   0.92084
 Alpha virt. eigenvalues --    0.93697   0.98846   1.01463   1.03620   1.05806
 Alpha virt. eigenvalues --    1.11789   1.16564   1.19976   1.20740   1.21738
 Alpha virt. eigenvalues --    1.32301   1.39032   1.52281   1.55740   1.60142
 Alpha virt. eigenvalues --    1.61326   1.61563   1.62575   1.64457   1.68702
 Alpha virt. eigenvalues --    1.74261   1.78897   1.79544   1.82902   1.83118
 Alpha virt. eigenvalues --    1.87929   1.91346   1.92434   1.96982   2.00499
 Alpha virt. eigenvalues --    2.02303   2.05023   2.05260   2.17074   2.21370
 Alpha virt. eigenvalues --    2.21372   2.21838   2.25254   2.37391   2.45614
 Alpha virt. eigenvalues --    2.48416   2.54096   2.56593   2.62840   2.64835
 Alpha virt. eigenvalues --    2.65824   2.73422   2.75780   2.83255   2.83544
 Alpha virt. eigenvalues --    2.86684   2.87982   2.88446   2.91107   2.97744
 Alpha virt. eigenvalues --    2.98405   3.01063   3.03171   3.15484   3.15689
 Alpha virt. eigenvalues --    3.18083   3.29948   3.30371   3.38877   3.42872
 Alpha virt. eigenvalues --    3.53676   3.69399   3.70982   3.72146   4.10812
 Alpha virt. eigenvalues --    4.13282   4.24320   4.26505   4.28526   4.83378
 Alpha virt. eigenvalues --    4.98582   5.28387  24.61422  24.73485  24.81712
 Alpha virt. eigenvalues --   25.20077  25.22619  36.88369
          Condensed to atoms (all electrons):
              1          2          3          4          5          6
     1  C    9.834345  -2.586274  -0.291291   1.129619   0.085300  -2.583761
     2  C   -2.586274  13.244675   0.825082  -5.191112  -0.340312  -3.794915
     3  H   -0.291291   0.825082   0.477331  -0.270979  -0.020357  -0.142430
     4  C    1.129619  -5.191112  -0.270979  10.078084   0.651200   3.859016
     5  H    0.085300  -0.340312  -0.020357   0.651200   0.461595   0.169940
     6  C   -2.583761  -3.794915  -0.142430   3.859016   0.169940  13.242663
     7  H   -0.291154  -0.142442  -0.004367   0.150116   0.004824   0.825001
     8  C    1.128399   3.859623   0.150133  -3.917188  -0.265144  -5.191640
     9  H    0.085236   0.169913   0.004823  -0.265092  -0.015474  -0.340282
    10  N   -0.242028  -0.062632   0.007004  -0.003892  -0.003945  -0.062211
    11  H   -0.005456  -0.060042  -0.006814   0.031627   0.000981   0.027708
    12  H   -0.005468   0.027707   0.001780  -0.017864  -0.000400  -0.060025
              7          8          9         10         11         12
     1  C   -0.291154   1.128399   0.085236  -0.242028  -0.005456  -0.005468
     2  C   -0.142442   3.859623   0.169913  -0.062632  -0.060042   0.027707
     3  H   -0.004367   0.150133   0.004823   0.007004  -0.006814   0.001780
     4  C    0.150116  -3.917188  -0.265092  -0.003892   0.031627  -0.017864
     5  H    0.004824  -0.265144  -0.015474  -0.003945   0.000981  -0.000400
     6  C    0.825001  -5.191640  -0.340282  -0.062211   0.027708  -0.060025
     7  H    0.477346  -0.271019  -0.020355   0.007013   0.001780  -0.006815
     8  C   -0.271019  10.079698   0.651226  -0.004021  -0.017865   0.031636
     9  H   -0.020355   0.651226   0.461585  -0.003947  -0.000400   0.000981
    10  N    0.007013  -0.004021  -0.003947   6.803572   0.358596   0.358585
    11  H    0.001780  -0.017865  -0.000400   0.358596   0.327937  -0.003825
    12  H   -0.006815   0.031636   0.000981   0.358585  -0.003825   0.327940
 Mulliken atomic charges:
              1
     1  C   -0.257468
     2  C    0.050729
     3  H    0.270083
     4  C   -0.233535
     5  H    0.271792
     6  C    0.050936
     7  H    0.270071
     8  C   -0.233839
     9  H    0.271784
    10  N   -0.152094
    11  H    0.345772
    12  H    0.345770
 Sum of Mulliken atomic charges =   1.00000
 Mulliken charges with hydrogens summed into heavy atoms:
              1
     1  C   -0.257468
     2  C    0.320811
     4  C    0.038256
     6  C    0.321007
     8  C    0.037945
    10  N    0.539448
 Sum of Mulliken charges with hydrogens summed into heavy atoms =   1.00000
 Electronic spatial extent (au):  <R**2>=            474.8821
 Charge=              1.0000 electrons
 Dipole moment (field-independent basis, Debye):
    X=             -0.0002    Y=              3.4636    Z=              0.0000  Tot=              3.4636
 Quadrupole moment (field-independent basis, Debye-Ang):
   XX=            -24.4248   YY=            -10.3187   ZZ=            -36.8821
   XY=             -0.0023   XZ=              0.0000   YZ=              0.0000
 Traceless Quadrupole moment (field-independent basis, Debye-Ang):
   XX=             -0.5496   YY=             13.5565   ZZ=            -13.0069
   XY=             -0.0023   XZ=              0.0000   YZ=              0.0000
 Octapole moment (field-independent basis, Debye-Ang**2):
  XXX=             -0.0005  YYY=             31.1110  ZZZ=              0.0000  XYY=             -0.0019
  XXY=              5.7987  XXZ=              0.0000  XZZ=             -0.0001  YZZ=              2.9542
  YYZ=              0.0000  XYZ=              0.0000
 Hexadecapole moment (field-independent basis, Debye-Ang**3):
 XXXX=           -172.8325 YYYY=           -212.1986 ZZZZ=            -39.6885 XXXY=             -0.0021
 XXXZ=              0.0000 YYYX=              0.0021 YYYZ=              0.0000 ZZZX=              0.0000
 ZZZY=              0.0000 XXYY=            -64.2610 XXZZ=            -47.3231 YYZZ=            -72.5348
 XXYZ=              0.0000 YYXZ=              0.0000 ZZXY=              0.0023
 N-N= 2.109795828569D+02 E-N=-9.893850238572D+02  KE= 2.477770468005D+02
 Symmetry A'   KE= 2.403201416116D+02
 Symmetry A"   KE= 7.456905188922D+00
 No NMR shielding tensors so no spin-rotation constants.
 Leave Link  601 at Fri Dec  3 17:34:25 2021, MaxMem=  209715200 cpu:       0.8
 (Enter /apps/software//g09/l9999.exe)
 1\1\GINC-DLT01\SP\RMP2-FC\6-311++G(d,p)\C5H6N1(1+)\ITAMAR\03-Dec-2021\
 0\\#P MP2/6-311++G** DENSITY=MP2\\Penta-Nh2p\\1,1\C,0,0.,0.695878,0.\C
 ,0,1.202665,-0.156428,0.\H,0,2.220793,0.20295,0.\C,0,0.757738,-1.42096
 ,0.\H,0,1.361452,-2.318039,0.\C,0,-1.202625,-0.156686,0.\H,0,-2.220751
 ,0.202702,0.\C,0,-0.757497,-1.421104,0.\H,0,-1.360976,-2.318335,0.\N,0
 ,-0.000224,1.991154,0.\H,0,0.8648,2.524373,0.\H,0,-0.865435,2.524071,0
 .\\Version=EM64L-G09RevA.02\State=1-A'\HF=-247.0753632\MP2=-247.912321
 9\RMSD=5.052e-09\Dipole=-0.0000642,1.3626817,0.\Quadrupole=-0.408613,1
 0.0789271,-9.6703141,-0.0016828,0.,0.\PG=CS [SG(C5H6N1)]\\@


 We make a living by what we get,
 we make a life by what we give.
                   -- Sir Winston Churchill
 There are more things in heaven and earth, Horatio,
 than are dreamt of in your philosophy.
                   -- Hamlet, Act I, Scene 5
 The chemist is a guest at the physicist's table and
 frequently dines well.
                   -- Richard Bersohn
 Job cpu time:  0 days  0 hours  1 minutes 36.4 seconds.
 File lengths (MBytes):  RWF=     14 Int=      0 D2E=      0 Chk=      4 Scr=      1
 Normal termination of Gaussian 09 at Fri Dec  3 17:34:25 2021.
