Clamp-20                                                                
SP        RMP2-FC                                                     6-311++G(d,p)       
Number of atoms                            I               12
Info1-9                                    I   N=           9
          22          21           0           0           0         110
           1           2           1
Charge                                     I                0
Multiplicity                               I                1
Number of electrons                        I               42
Number of alpha electrons                  I               21
Number of beta electrons                   I               21
Number of basis functions                  I              174
Number of independent functions            I              174
Number of point charges in /Mol/           I                0
Number of translation vectors              I                0
Atomic numbers                             I   N=          12
           6           6           6           6           6           6
           1           1           1           1           1           1
Nuclear charges                            R   N=          12
  6.00000000E+00  6.00000000E+00  6.00000000E+00  6.00000000E+00  6.00000000E+00
  6.00000000E+00  1.00000000E+00  1.00000000E+00  1.00000000E+00  1.00000000E+00
  1.00000000E+00  1.00000000E+00
Current cartesian coordinates              R   N=          36
  0.00000000E+00  2.66111234E+00  4.49995085E-02  0.00000000E+00  1.36944862E+00
  2.28194770E+00 -1.67709087E-16 -1.36944862E+00  2.28194770E+00 -3.25892271E-16
 -2.66111234E+00  4.49995085E-02  0.00000000E+00 -1.29152577E+00 -2.32692615E+00
  1.58166290E-16  1.29152577E+00 -2.32692615E+00  0.00000000E+00  4.58519180E+00
 -6.55410475E-01  9.86076132E-32  1.72501193E+00  4.29843477E+00 -2.11253034E-16
 -1.72501193E+00  4.29843477E+00 -5.61524047E-16 -4.58519180E+00 -6.55410475E-01
 -1.97215226E-31 -2.85997956E+00 -3.64315064E+00  3.50246481E-16  2.85997956E+00
 -3.64315064E+00
Force Field                                I                0
Int Atom Types                             I   N=          12
           0           0           0           0           0           0
           0           0           0           0           0           0
MM charges                                 R   N=          12
  0.00000000E+00  0.00000000E+00  0.00000000E+00  0.00000000E+00  0.00000000E+00
  0.00000000E+00  0.00000000E+00  0.00000000E+00  0.00000000E+00  0.00000000E+00
  0.00000000E+00  0.00000000E+00
Integer atomic weights                     I   N=          12
          12          12          12          12          12          12
           1           1           1           1           1           1
Real atomic weights                        R   N=          12
  1.20000000E+01  1.20000000E+01  1.20000000E+01  1.20000000E+01  1.20000000E+01
  1.20000000E+01  1.00782504E+00  1.00782504E+00  1.00782504E+00  1.00782504E+00
  1.00782504E+00  1.00782504E+00
Atom fragment info                         I   N=          12
           0           0           0           0           0           0
           0           0           0           0           0           0
Atom residue num                           I   N=          12
           0           0           0           0           0           0
           0           0           0           0           0           0
Nuclear spins                              I   N=          12
           0           0           0           0           0           0
           1           1           1           1           1           1
Nuclear ZEff                               R   N=          12
 -3.60000000E+00 -3.60000000E+00 -3.60000000E+00 -3.60000000E+00 -3.60000000E+00
 -3.60000000E+00 -1.00000000E+00 -1.00000000E+00 -1.00000000E+00 -1.00000000E+00
 -1.00000000E+00 -1.00000000E+00
Nuclear QMom                               R   N=          12
  0.00000000E+00  0.00000000E+00  0.00000000E+00  0.00000000E+00  0.00000000E+00
  0.00000000E+00  0.00000000E+00  0.00000000E+00  0.00000000E+00  0.00000000E+00
  0.00000000E+00  0.00000000E+00
Nuclear GFac                               R   N=          12
  0.00000000E+00  0.00000000E+00  0.00000000E+00  0.00000000E+00  0.00000000E+00
  0.00000000E+00  2.79284600E+00  2.79284600E+00  2.79284600E+00  2.79284600E+00
  2.79284600E+00  2.79284600E+00
MicOpt                                     I   N=          12
          -1          -1          -1          -1          -1          -1
          -1          -1          -1          -1          -1          -1
Number of contracted shells                I               66
Number of primitive shells                 I              120
Pure/Cartesian d shells                    I                0
Pure/Cartesian f shells                    I                0
Highest angular momentum                   I                2
Largest degree of contraction              I                6
Shell types                                I   N=          66
           0          -1          -1          -1          -1          -2
           0          -1          -1          -1          -1          -2
           0          -1          -1          -1          -1          -2
           0          -1          -1          -1          -1          -2
           0          -1          -1          -1          -1          -2
           0          -1          -1          -1          -1          -2
           0           0           0           0           1           0
           0           0           0           1           0           0
           0           0           1           0           0           0
           0           1           0           0           0           0
           1           0           0           0           0           1
Number of primitives per shell             I   N=          66
           6           3           1           1           1           1
           6           3           1           1           1           1
           6           3           1           1           1           1
           6           3           1           1           1           1
           6           3           1           1           1           1
           6           3           1           1           1           1
           3           1           1           1           1           3
           1           1           1           1           3           1
           1           1           1           3           1           1
           1           1           3           1           1           1
           1           3           1           1           1           1
Shell to atom map                          I   N=          66
           1           1           1           1           1           1
           2           2           2           2           2           2
           3           3           3           3           3           3
           4           4           4           4           4           4
           5           5           5           5           5           5
           6           6           6           6           6           6
           7           7           7           7           7           8
           8           8           8           8           9           9
           9           9           9          10          10          10
          10          10          11          11          11          11
          11          12          12          12          12          12
Primitive exponents                        R   N=         120
  4.56324000E+03  6.82024000E+02  1.54973000E+02  4.44553000E+01  1.30290000E+01
  1.82773000E+00  2.09642000E+01  4.80331000E+00  1.45933000E+00  4.83456000E-01
  1.45585000E-01  4.38000000E-02  6.26000000E-01  4.56324000E+03  6.82024000E+02
  1.54973000E+02  4.44553000E+01  1.30290000E+01  1.82773000E+00  2.09642000E+01
  4.80331000E+00  1.45933000E+00  4.83456000E-01  1.45585000E-01  4.38000000E-02
  6.26000000E-01  4.56324000E+03  6.82024000E+02  1.54973000E+02  4.44553000E+01
  1.30290000E+01  1.82773000E+00  2.09642000E+01  4.80331000E+00  1.45933000E+00
  4.83456000E-01  1.45585000E-01  4.38000000E-02  6.26000000E-01  4.56324000E+03
  6.82024000E+02  1.54973000E+02  4.44553000E+01  1.30290000E+01  1.82773000E+00
  2.09642000E+01  4.80331000E+00  1.45933000E+00  4.83456000E-01  1.45585000E-01
  4.38000000E-02  6.26000000E-01  4.56324000E+03  6.82024000E+02  1.54973000E+02
  4.44553000E+01  1.30290000E+01  1.82773000E+00  2.09642000E+01  4.80331000E+00
  1.45933000E+00  4.83456000E-01  1.45585000E-01  4.38000000E-02  6.26000000E-01
  4.56324000E+03  6.82024000E+02  1.54973000E+02  4.44553000E+01  1.30290000E+01
  1.82773000E+00  2.09642000E+01  4.80331000E+00  1.45933000E+00  4.83456000E-01
  1.45585000E-01  4.38000000E-02  6.26000000E-01  3.38650000E+01  5.09479000E+00
  1.15879000E+00  3.25840000E-01  1.02741000E-01  3.60000000E-02  7.50000000E-01
  3.38650000E+01  5.09479000E+00  1.15879000E+00  3.25840000E-01  1.02741000E-01
  3.60000000E-02  7.50000000E-01  3.38650000E+01  5.09479000E+00  1.15879000E+00
  3.25840000E-01  1.02741000E-01  3.60000000E-02  7.50000000E-01  3.38650000E+01
  5.09479000E+00  1.15879000E+00  3.25840000E-01  1.02741000E-01  3.60000000E-02
  7.50000000E-01  3.38650000E+01  5.09479000E+00  1.15879000E+00  3.25840000E-01
  1.02741000E-01  3.60000000E-02  7.50000000E-01  3.38650000E+01  5.09479000E+00
  1.15879000E+00  3.25840000E-01  1.02741000E-01  3.60000000E-02  7.50000000E-01
Contraction coefficients                   R   N=         120
  1.96665025E-03  1.52306019E-02  7.61269097E-02  2.60801033E-01  6.16462078E-01
  2.21006028E-01  1.14660081E-01  9.19999648E-01 -3.03068213E-03  1.00000000E+00
  1.00000000E+00  1.00000000E+00  1.00000000E+00  1.96665025E-03  1.52306019E-02
  7.61269097E-02  2.60801033E-01  6.16462078E-01  2.21006028E-01  1.14660081E-01
  9.19999648E-01 -3.03068213E-03  1.00000000E+00  1.00000000E+00  1.00000000E+00
  1.00000000E+00  1.96665025E-03  1.52306019E-02  7.61269097E-02  2.60801033E-01
  6.16462078E-01  2.21006028E-01  1.14660081E-01  9.19999648E-01 -3.03068213E-03
  1.00000000E+00  1.00000000E+00  1.00000000E+00  1.00000000E+00  1.96665025E-03
  1.52306019E-02  7.61269097E-02  2.60801033E-01  6.16462078E-01  2.21006028E-01
  1.14660081E-01  9.19999648E-01 -3.03068213E-03  1.00000000E+00  1.00000000E+00
  1.00000000E+00  1.00000000E+00  1.96665025E-03  1.52306019E-02  7.61269097E-02
  2.60801033E-01  6.16462078E-01  2.21006028E-01  1.14660081E-01  9.19999648E-01
 -3.03068213E-03  1.00000000E+00  1.00000000E+00  1.00000000E+00  1.00000000E+00
  1.96665025E-03  1.52306019E-02  7.61269097E-02  2.60801033E-01  6.16462078E-01
  2.21006028E-01  1.14660081E-01  9.19999648E-01 -3.03068213E-03  1.00000000E+00
  1.00000000E+00  1.00000000E+00  1.00000000E+00  2.54938145E-02  1.90373109E-01
  8.52161486E-01  1.00000000E+00  1.00000000E+00  1.00000000E+00  1.00000000E+00
  2.54938145E-02  1.90373109E-01  8.52161486E-01  1.00000000E+00  1.00000000E+00
  1.00000000E+00  1.00000000E+00  2.54938145E-02  1.90373109E-01  8.52161486E-01
  1.00000000E+00  1.00000000E+00  1.00000000E+00  1.00000000E+00  2.54938145E-02
  1.90373109E-01  8.52161486E-01  1.00000000E+00  1.00000000E+00  1.00000000E+00
  1.00000000E+00  2.54938145E-02  1.90373109E-01  8.52161486E-01  1.00000000E+00
  1.00000000E+00  1.00000000E+00  1.00000000E+00  2.54938145E-02  1.90373109E-01
  8.52161486E-01  1.00000000E+00  1.00000000E+00  1.00000000E+00  1.00000000E+00
P(S=P) Contraction coefficients            R   N=         120
  0.00000000E+00  0.00000000E+00  0.00000000E+00  0.00000000E+00  0.00000000E+00
  0.00000000E+00  4.02486927E-02  2.37593957E-01  8.15853851E-01  1.00000000E+00
  1.00000000E+00  1.00000000E+00  0.00000000E+00  0.00000000E+00  0.00000000E+00
  0.00000000E+00  0.00000000E+00  0.00000000E+00  0.00000000E+00  4.02486927E-02
  2.37593957E-01  8.15853851E-01  1.00000000E+00  1.00000000E+00  1.00000000E+00
  0.00000000E+00  0.00000000E+00  0.00000000E+00  0.00000000E+00  0.00000000E+00
  0.00000000E+00  0.00000000E+00  4.02486927E-02  2.37593957E-01  8.15853851E-01
  1.00000000E+00  1.00000000E+00  1.00000000E+00  0.00000000E+00  0.00000000E+00
  0.00000000E+00  0.00000000E+00  0.00000000E+00  0.00000000E+00  0.00000000E+00
  4.02486927E-02  2.37593957E-01  8.15853851E-01  1.00000000E+00  1.00000000E+00
  1.00000000E+00  0.00000000E+00  0.00000000E+00  0.00000000E+00  0.00000000E+00
  0.00000000E+00  0.00000000E+00  0.00000000E+00  4.02486927E-02  2.37593957E-01
  8.15853851E-01  1.00000000E+00  1.00000000E+00  1.00000000E+00  0.00000000E+00
  0.00000000E+00  0.00000000E+00  0.00000000E+00  0.00000000E+00  0.00000000E+00
  0.00000000E+00  4.02486927E-02  2.37593957E-01  8.15853851E-01  1.00000000E+00
  1.00000000E+00  1.00000000E+00  0.00000000E+00  0.00000000E+00  0.00000000E+00
  0.00000000E+00  0.00000000E+00  0.00000000E+00  0.00000000E+00  0.00000000E+00
  0.00000000E+00  0.00000000E+00  0.00000000E+00  0.00000000E+00  0.00000000E+00
  0.00000000E+00  0.00000000E+00  0.00000000E+00  0.00000000E+00  0.00000000E+00
  0.00000000E+00  0.00000000E+00  0.00000000E+00  0.00000000E+00  0.00000000E+00
  0.00000000E+00  0.00000000E+00  0.00000000E+00  0.00000000E+00  0.00000000E+00
  0.00000000E+00  0.00000000E+00  0.00000000E+00  0.00000000E+00  0.00000000E+00
  0.00000000E+00  0.00000000E+00  0.00000000E+00  0.00000000E+00  0.00000000E+00
  0.00000000E+00  0.00000000E+00  0.00000000E+00  0.00000000E+00  0.00000000E+00
Coordinates of each shell                  R   N=         198
  0.00000000E+00  2.66111234E+00  4.49995085E-02  0.00000000E+00  2.66111234E+00
  4.49995085E-02  0.00000000E+00  2.66111234E+00  4.49995085E-02  0.00000000E+00
  2.66111234E+00  4.49995085E-02  0.00000000E+00  2.66111234E+00  4.49995085E-02
  0.00000000E+00  2.66111234E+00  4.49995085E-02  0.00000000E+00  1.36944862E+00
  2.28194770E+00  0.00000000E+00  1.36944862E+00  2.28194770E+00  0.00000000E+00
  1.36944862E+00  2.28194770E+00  0.00000000E+00  1.36944862E+00  2.28194770E+00
  0.00000000E+00  1.36944862E+00  2.28194770E+00  0.00000000E+00  1.36944862E+00
  2.28194770E+00 -1.67709087E-16 -1.36944862E+00  2.28194770E+00 -1.67709087E-16
 -1.36944862E+00  2.28194770E+00 -1.67709087E-16 -1.36944862E+00  2.28194770E+00
 -1.67709087E-16 -1.36944862E+00  2.28194770E+00 -1.67709087E-16 -1.36944862E+00
  2.28194770E+00 -1.67709087E-16 -1.36944862E+00  2.28194770E+00 -3.25892271E-16
 -2.66111234E+00  4.49995085E-02 -3.25892271E-16 -2.66111234E+00  4.49995085E-02
 -3.25892271E-16 -2.66111234E+00  4.49995085E-02 -3.25892271E-16 -2.66111234E+00
  4.49995085E-02 -3.25892271E-16 -2.66111234E+00  4.49995085E-02 -3.25892271E-16
 -2.66111234E+00  4.49995085E-02  0.00000000E+00 -1.29152577E+00 -2.32692615E+00
  0.00000000E+00 -1.29152577E+00 -2.32692615E+00  0.00000000E+00 -1.29152577E+00
 -2.32692615E+00  0.00000000E+00 -1.29152577E+00 -2.32692615E+00  0.00000000E+00
 -1.29152577E+00 -2.32692615E+00  0.00000000E+00 -1.29152577E+00 -2.32692615E+00
  1.58166290E-16  1.29152577E+00 -2.32692615E+00  1.58166290E-16  1.29152577E+00
 -2.32692615E+00  1.58166290E-16  1.29152577E+00 -2.32692615E+00  1.58166290E-16
  1.29152577E+00 -2.32692615E+00  1.58166290E-16  1.29152577E+00 -2.32692615E+00
  1.58166290E-16  1.29152577E+00 -2.32692615E+00  0.00000000E+00  4.58519180E+00
 -6.55410475E-01  0.00000000E+00  4.58519180E+00 -6.55410475E-01  0.00000000E+00
  4.58519180E+00 -6.55410475E-01  0.00000000E+00  4.58519180E+00 -6.55410475E-01
  0.00000000E+00  4.58519180E+00 -6.55410475E-01  0.00000000E+00  1.72501193E+00
  4.29843477E+00  0.00000000E+00  1.72501193E+00  4.29843477E+00  0.00000000E+00
  1.72501193E+00  4.29843477E+00  0.00000000E+00  1.72501193E+00  4.29843477E+00
  0.00000000E+00  1.72501193E+00  4.29843477E+00 -2.11253034E-16 -1.72501193E+00
  4.29843477E+00 -2.11253034E-16 -1.72501193E+00  4.29843477E+00 -2.11253034E-16
 -1.72501193E+00  4.29843477E+00 -2.11253034E-16 -1.72501193E+00  4.29843477E+00
 -2.11253034E-16 -1.72501193E+00  4.29843477E+00 -5.61524047E-16 -4.58519180E+00
 -6.55410475E-01 -5.61524047E-16 -4.58519180E+00 -6.55410475E-01 -5.61524047E-16
 -4.58519180E+00 -6.55410475E-01 -5.61524047E-16 -4.58519180E+00 -6.55410475E-01
 -5.61524047E-16 -4.58519180E+00 -6.55410475E-01  0.00000000E+00 -2.85997956E+00
 -3.64315064E+00  0.00000000E+00 -2.85997956E+00 -3.64315064E+00  0.00000000E+00
 -2.85997956E+00 -3.64315064E+00  0.00000000E+00 -2.85997956E+00 -3.64315064E+00
  0.00000000E+00 -2.85997956E+00 -3.64315064E+00  3.50246481E-16  2.85997956E+00
 -3.64315064E+00  3.50246481E-16  2.85997956E+00 -3.64315064E+00  3.50246481E-16
  2.85997956E+00 -3.64315064E+00  3.50246481E-16  2.85997956E+00 -3.64315064E+00
  3.50246481E-16  2.85997956E+00 -3.64315064E+00
Constraint Structure                       R   N=          36
  0.00000000E+00  2.66111234E+00  4.49995085E-02  0.00000000E+00  1.36944862E+00
  2.28194770E+00 -1.67709087E-16 -1.36944862E+00  2.28194770E+00 -3.25892271E-16
 -2.66111234E+00  4.49995085E-02  0.00000000E+00 -1.29152577E+00 -2.32692615E+00
  1.58166290E-16  1.29152577E+00 -2.32692615E+00  0.00000000E+00  4.58519180E+00
 -6.55410475E-01  0.00000000E+00  1.72501193E+00  4.29843477E+00 -2.11253034E-16
 -1.72501193E+00  4.29843477E+00 -5.61524047E-16 -4.58519180E+00 -6.55410475E-01
  0.00000000E+00 -2.85997956E+00 -3.64315064E+00  3.50246481E-16  2.85997956E+00
 -3.64315064E+00
Num ILSW                                   I              100
ILSW                                       I   N=         100
           0           0           0           0           2           0
           0           0           0           0           0          -1
           0           0           0           0           0           0
           0           0           0           0           0           0
           1           0           0           0           0           0
           0           0      100000           0          -1           0
           0           0           0           0           0           0
           0           0           0           1           0           0
           0           0           1           0           0           0
           0           0           4          40           0           0
           0           0           0           0           0           0
           0           0           0           0           0           0
           0           0           0           0           0           0
           0           0           0           0           0           0
           0           0           0           0           0           0
           0           0           0           0           0           0
           0           0           0           0
Num RLSW                                   I               40
RLSW                                       R   N=          40
  1.00000000E+00  1.00000000E+00  1.00000000E+00  1.00000000E+00  1.00000000E+00
  0.00000000E+00  0.00000000E+00  1.00000000E+00  0.00000000E+00  0.00000000E+00
  0.00000000E+00  0.00000000E+00  1.00000000E+00  0.00000000E+00  0.00000000E+00
  0.00000000E+00  0.00000000E+00  1.00000000E+00  0.00000000E+00  0.00000000E+00
  0.00000000E+00  0.00000000E+00  1.00000000E+00  0.00000000E+00  0.00000000E+00
  0.00000000E+00  0.00000000E+00  1.00000000E+00  0.00000000E+00  0.00000000E+00
  0.00000000E+00  0.00000000E+00  0.00000000E+00  0.00000000E+00  0.00000000E+00
  0.00000000E+00  0.00000000E+00  0.00000000E+00  1.00000000E+00  1.00000000E+00
MxBond                                     I                3
NBond                                      I   N=          12
           3           3           3           3           3           3
           1           1           1           1           1           1
IBond                                      I   N=          36
           2           6           7           1           3           8
           2           4           9           3           5          10
           4           6          11           1           5          12
           1           0           0           2           0           0
           3           0           0           4           0           0
           5           0           0           6           0           0
RBond                                      R   N=          36
  2.00000000E+00  1.00000000E+00  1.00000000E+00  2.00000000E+00  1.00000000E+00
  1.00000000E+00  1.00000000E+00  2.00000000E+00  1.00000000E+00  2.00000000E+00
  1.00000000E+00  1.00000000E+00  1.00000000E+00  2.00000000E+00  1.00000000E+00
  1.00000000E+00  2.00000000E+00  1.00000000E+00  1.00000000E+00  0.00000000E+00
  0.00000000E+00  1.00000000E+00  0.00000000E+00  0.00000000E+00  1.00000000E+00
  0.00000000E+00  0.00000000E+00  1.00000000E+00  0.00000000E+00  0.00000000E+00
  1.00000000E+00  0.00000000E+00  0.00000000E+00  1.00000000E+00  0.00000000E+00
  0.00000000E+00
Virial Ratio                               R      2.001244189597753E+00
SCF Energy                                 R     -2.306607661390891E+02
MP2 Energy                                 R     -2.315006566799127E+02
Total Energy                               R     -2.315006566799127E+02
Post-SCF wavefunction norm                 R      1.147289094963244E+00
RMS Density                                R      3.320727185179474E-09
External E-field                           R   N=          35
  0.00000000E+00  0.00000000E+00  0.00000000E+00  0.00000000E+00  0.00000000E+00
  0.00000000E+00  0.00000000E+00  0.00000000E+00  0.00000000E+00  0.00000000E+00
  0.00000000E+00  0.00000000E+00  0.00000000E+00  0.00000000E+00  0.00000000E+00
  0.00000000E+00  0.00000000E+00  0.00000000E+00  0.00000000E+00  0.00000000E+00
  0.00000000E+00  0.00000000E+00  0.00000000E+00  0.00000000E+00  0.00000000E+00
  0.00000000E+00  0.00000000E+00  0.00000000E+00  0.00000000E+00  0.00000000E+00
  0.00000000E+00  0.00000000E+00  0.00000000E+00  0.00000000E+00  0.00000000E+00
IOpCl                                      I                0
IROHF                                      I                0
Alpha Orbital Energies                     R   N=         174
 -1.12460250E+01 -1.12455126E+01 -1.12455069E+01 -1.12442755E+01 -1.12442697E+01
 -1.12437277E+01 -1.15040424E+00 -1.02195529E+00 -1.02195075E+00 -8.35172015E-01
 -8.35165188E-01 -7.36811418E-01 -6.33353835E-01 -6.04478049E-01 -5.89158323E-01
 -5.89150098E-01 -4.99902176E-01 -4.73039495E-01 -4.73016092E-01 -3.39963785E-01
 -3.39962968E-01  4.17779651E-02  4.88906756E-02  4.88912951E-02  6.69392221E-02
  6.69397786E-02  8.90404693E-02  1.04492881E-01  1.04502232E-01  1.28859792E-01
  1.52841840E-01  1.52842351E-01  1.53103995E-01  1.61217505E-01  1.71497803E-01
  1.71501596E-01  1.88092414E-01  1.88093292E-01  1.90616740E-01  2.09207353E-01
  2.14180096E-01  2.14185272E-01  2.14922228E-01  2.14923121E-01  2.20630663E-01
  2.25974173E-01  2.25975471E-01  2.49994123E-01  2.49996134E-01  2.86537323E-01
  2.86538987E-01  2.99396648E-01  3.27356564E-01  3.35712982E-01  3.61104523E-01
  3.61797868E-01  3.61805720E-01  4.39581648E-01  4.39598586E-01  4.45947075E-01
  4.82734054E-01  4.82739800E-01  5.20914612E-01  5.20925034E-01  5.87477300E-01
  6.69523748E-01  6.69588614E-01  7.13022273E-01  7.31830018E-01  7.31833679E-01
  7.55741538E-01  7.55746503E-01  7.57231929E-01  7.57236238E-01  7.61170869E-01
  7.93580361E-01  8.16497716E-01  8.16501788E-01  8.83058937E-01  8.99354303E-01
  8.99355171E-01  9.55039883E-01  9.55048956E-01  9.63554073E-01  1.00867714E+00
  1.01381916E+00  1.01382532E+00  1.06293962E+00  1.06293971E+00  1.06695566E+00
  1.14015980E+00  1.14016414E+00  1.15039476E+00  1.15453053E+00  1.20690679E+00
  1.20691316E+00  1.23970618E+00  1.31183735E+00  1.31185784E+00  1.40556175E+00
  1.40557499E+00  1.47298041E+00  1.53397978E+00  1.59610904E+00  1.71173992E+00
  1.71178826E+00  1.74806896E+00  1.78390008E+00  1.78390167E+00  1.79863100E+00
  1.91677674E+00  1.91679762E+00  1.95448035E+00  1.95453737E+00  1.98986816E+00
  2.05058137E+00  2.05058690E+00  2.11729474E+00  2.11730150E+00  2.13768396E+00
  2.16805149E+00  2.16807271E+00  2.17375267E+00  2.20205944E+00  2.20206179E+00
  2.31939885E+00  2.39938797E+00  2.39941243E+00  2.46877480E+00  2.47216771E+00
  2.47218540E+00  2.52160597E+00  2.52161725E+00  2.71363223E+00  2.75204027E+00
  2.79517082E+00  2.79523722E+00  2.82104682E+00  2.87661442E+00  2.91780784E+00
  2.91781998E+00  3.05130122E+00  3.05697086E+00  3.05700257E+00  3.18841725E+00
  3.18842422E+00  3.20092780E+00  3.20094227E+00  3.21677096E+00  3.29665002E+00
  3.29665475E+00  3.36287081E+00  3.36289159E+00  3.46342446E+00  3.48222901E+00
  3.49607988E+00  3.68575121E+00  3.68577437E+00  3.81250844E+00  3.94328216E+00
  3.94331072E+00  3.98422658E+00  4.34755451E+00  4.34756631E+00  4.52755320E+00
  4.54466672E+00  4.54466809E+00  5.22573753E+00  2.46925439E+01  2.50538791E+01
  2.50539039E+01  2.53969141E+01  2.53969671E+01  2.54529341E+01
Alpha MO coefficients                      R   N=       30276
  2.30769536E-01  1.91069113E-01  0.00000000E+00 -3.78522141E-05  3.43633279E-05
  1.98063964E-03  0.00000000E+00 -1.31884464E-04 -1.83762247E-05 -3.04310393E-04
  0.00000000E+00  2.46026165E-05  9.80078463E-06 -1.98022411E-04  0.00000000E+00
 -2.16583193E-04  1.43608551E-04  1.18393091E-04  0.00000000E+00 -6.43195791E-05
 -9.03212595E-05  0.00000000E+00  2.31321479E-01  1.91525939E-01  0.00000000E+00
  9.68676462E-06 -4.96628849E-05  1.98630765E-03  0.00000000E+00 -8.39116381E-05
 -1.05652979E-04 -3.05393566E-04  0.00000000E+00  2.24695572E-05  1.42424660E-05
 -1.87976083E-04  0.00000000E+00  8.67155950E-06 -2.60177782E-04  9.12366864E-05
  0.00000000E+00 -8.10730707E-05 -1.05986040E-04  0.00000000E+00  2.31321479E-01
  1.91525939E-01  0.00000000E+00 -9.68676462E-06 -4.96628849E-05  1.98630765E-03
  0.00000000E+00  8.39116381E-05 -1.05652979E-04 -3.05393566E-04  0.00000000E+00
 -2.24695572E-05  1.42424660E-05 -1.87976083E-04  0.00000000E+00 -8.67155950E-06
 -2.60177782E-04  9.12366864E-05  0.00000000E+00  8.10730707E-05 -1.05986040E-04
  0.00000000E+00  2.30769536E-01  1.91069113E-01  0.00000000E+00  3.78522141E-05
  3.43633279E-05  1.98063964E-03  0.00000000E+00  1.31884464E-04 -1.83762247E-05
 -3.04310393E-04  0.00000000E+00 -2.46026165E-05  9.80078463E-06 -1.98022411E-04
  0.00000000E+00  2.16583193E-04  1.43608551E-04  1.18393091E-04  0.00000000E+00
  6.43195791E-05 -9.03212595E-05  0.00000000E+00  2.27655199E-01  1.88489946E-01
  0.00000000E+00  4.66111852E-05  1.68010108E-05  1.95715302E-03  0.00000000E+00
  4.96446266E-05  1.25424231E-04 -3.03907210E-04  0.00000000E+00 -9.31555758E-07
 -2.67507559E-05 -1.72739449E-04  0.00000000E+00  2.17418102E-04  1.16063709E-04
 -2.73496571E-06  0.00000000E+00 -1.82040436E-05 -1.57423329E-04  0.00000000E+00
  2.27655199E-01  1.88489946E-01  0.00000000E+00 -4.66111852E-05  1.68010108E-05
  1.95715302E-03  0.00000000E+00 -4.96446266E-05  1.25424231E-04 -3.03907210E-04
  0.00000000E+00  9.31555758E-07 -2.67507559E-05 -1.72739449E-04  0.00000000E+00
 -2.17418102E-04  1.16063709E-04 -2.73496571E-06  0.00000000E+00  1.82040436E-05
 -1.57423329E-04  0.00000000E+00  1.67352988E-04 -1.16811336E-04  2.90328319E-04
  1.43048285E-04  0.00000000E+00  2.78504924E-05  4.19717814E-05  1.67906766E-04
 -1.16200422E-04  2.91790664E-04  1.44352033E-04  0.00000000E+00  5.00476288E-05
  2.75635925E-06  1.67906766E-04 -1.16200422E-04  2.91790664E-04  1.44352033E-04
  0.00000000E+00 -5.00476288E-05  2.75635925E-06  1.67352988E-04 -1.16811336E-04
  2.90328319E-04  1.43048285E-04  0.00000000E+00 -2.78504924E-05  4.19717814E-05
  1.65442679E-04 -1.13112843E-04  2.85755477E-04  1.36568935E-04  0.00000000E+00
  2.26854271E-05 -4.35878464E-05  1.65442679E-04 -1.13112843E-04  2.85755477E-04
  1.36568935E-04  0.00000000E+00 -2.26854271E-05 -4.35878464E-05  3.21532135E-01
  2.66253404E-01  0.00000000E+00 -2.10197841E-05  6.65515683E-05  2.58043173E-03
  0.00000000E+00 -4.34133240E-05 -2.96737879E-05 -2.04832615E-04  0.00000000E+00
  1.29623700E-05 -2.81022776E-05 -9.88199411E-04  0.00000000E+00 -1.01843759E-03
  6.41577828E-04  1.75694376E-04  0.00000000E+00 -1.59158492E-04 -1.53662085E-04
  0.00000000E+00  2.04407687E-01  1.69273685E-01  0.00000000E+00  1.52932266E-04
 -1.11892953E-04  1.58694349E-03  0.00000000E+00  1.33545929E-04  6.17953658E-05
 -7.98809595E-06  0.00000000E+00 -1.39692085E-04  1.08671280E-04 -2.39936804E-03
  0.00000000E+00  6.40419438E-04 -8.88418994E-04  1.97449730E-04  0.00000000E+00
 -1.81619615E-04 -6.05543926E-05  0.00000000E+00 -2.04407687E-01 -1.69273685E-01
  0.00000000E+00  1.52932266E-04  1.11892953E-04 -1.58694349E-03  0.00000000E+00
  1.33545929E-04 -6.17953658E-05  7.98809595E-06  0.00000000E+00 -1.39692085E-04
 -1.08671280E-04  2.39936804E-03  0.00000000E+00  6.40419438E-04  8.88418994E-04
 -1.97449730E-04  0.00000000E+00 -1.81619615E-04  6.05543926E-05  0.00000000E+00
 -3.21532135E-01 -2.66253404E-01  0.00000000E+00 -2.10197841E-05 -6.65515683E-05
 -2.58043173E-03  0.00000000E+00 -4.34133240E-05  2.96737879E-05  2.04832615E-04
  0.00000000E+00  1.29623700E-05  2.81022776E-05  9.88199411E-04  0.00000000E+00
 -1.01843759E-03 -6.41577828E-04 -1.75694376E-04  0.00000000E+00 -1.59158492E-04
  1.53662085E-04  0.00000000E+00 -1.16037193E-01 -9.60791050E-02  0.00000000E+00
  1.04802014E-04 -6.18758362E-05 -9.86029510E-04  0.00000000E+00  1.83547444E-05
 -1.99509298E-04  1.90554387E-04  0.00000000E+00 -1.40301812E-04  6.22124205E-05
 -1.45603931E-03  0.00000000E+00  1.72450836E-05 -6.79134147E-04 -8.04962577E-05
  0.00000000E+00  1.76525999E-05  3.27109041E-05  0.00000000E+00  1.16037193E-01
  9.60791050E-02  0.00000000E+00  1.04802014E-04  6.18758362E-05  9.86029510E-04
  0.00000000E+00  1.83547444E-05  1.99509298E-04 -1.90554387E-04  0.00000000E+00