 Entering Gaussian System, Link 0=g09
 Initial command:
 /apps/software//g09/l1.exe /scratch/itamar/3316.cluster.abaxnet/Gau-14966.inp -scrdir=/scratch/itamar/3316.cluster.abaxnet/
 Entering Link 1 = /apps/software//g09/l1.exe PID=     14967.
  
 Copyright (c) 1988,1990,1992,1993,1995,1998,2003,2009, Gaussian, Inc.
                  All Rights Reserved.
  
 This is part of the Gaussian(R) 09 program.  It is based on
 the Gaussian(R) 03 system (copyright 2003, Gaussian, Inc.),
 the Gaussian(R) 98 system (copyright 1998, Gaussian, Inc.),
 the Gaussian(R) 94 system (copyright 1995, Gaussian, Inc.),
 the Gaussian 92(TM) system (copyright 1992, Gaussian, Inc.),
 the Gaussian 90(TM) system (copyright 1990, Gaussian, Inc.),
 the Gaussian 88(TM) system (copyright 1988, Gaussian, Inc.),
 the Gaussian 86(TM) system (copyright 1986, Carnegie Mellon
 University), and the Gaussian 82(TM) system (copyright 1983,
 Carnegie Mellon University). Gaussian is a federally registered
 trademark of Gaussian, Inc.
  
 This software contains proprietary and confidential information,
 including trade secrets, belonging to Gaussian, Inc.
  
 This software is provided under written license and may be
 used, copied, transmitted, or stored only in accord with that
 written license.
  
 The following legend is applicable only to US Government
 contracts under FAR:
  
                    RESTRICTED RIGHTS LEGEND
  
 Use, reproduction and disclosure by the US Government is
 subject to restrictions as set forth in subparagraphs (a)
 and (c) of the Commercial Computer Software - Restricted
 Rights clause in FAR 52.227-19.
  
 Gaussian, Inc.
 340 Quinnipiac St., Bldg. 40, Wallingford CT 06492
  
  
 ---------------------------------------------------------------
 Warning -- This program may not be used in any manner that
 competes with the business of Gaussian, Inc. or will provide
 assistance to any competitor of Gaussian, Inc.  The licensee
 of this program is prohibited from giving any competitor of
 Gaussian, Inc. access to this program.  By using this program,
 the user acknowledges that Gaussian, Inc. is engaged in the
 business of creating and licensing software in the field of
 computational chemistry and represents and warrants to the
 licensee that it is not a competitor of Gaussian, Inc. and that
 it will not use this program in any manner prohibited above.
 ---------------------------------------------------------------
  

 Cite this work as:
 Gaussian 09, Revision A.02,
 M. J. Frisch, G. W. Trucks, H. B. Schlegel, G. E. Scuseria, 
 M. A. Robb, J. R. Cheeseman, G. Scalmani, V. Barone, B. Mennucci, 
 G. A. Petersson, H. Nakatsuji, M. Caricato, X. Li, H. P. Hratchian, 
 A. F. Izmaylov, J. Bloino, G. Zheng, J. L. Sonnenberg, M. Hada, 
 M. Ehara, K. Toyota, R. Fukuda, J. Hasegawa, M. Ishida, T. Nakajima, 
 Y. Honda, O. Kitao, H. Nakai, T. Vreven, J. A. Montgomery, Jr., 
 J. E. Peralta, F. Ogliaro, M. Bearpark, J. J. Heyd, E. Brothers, 
 K. N. Kudin, V. N. Staroverov, R. Kobayashi, J. Normand, 
 K. Raghavachari, A. Rendell, J. C. Burant, S. S. Iyengar, J. Tomasi, 
 M. Cossi, N. Rega, J. M. Millam, M. Klene, J. E. Knox, J. B. Cross, 
 V. Bakken, C. Adamo, J. Jaramillo, R. Gomperts, R. E. Stratmann, 
 O. Yazyev, A. J. Austin, R. Cammi, C. Pomelli, J. W. Ochterski, 
 R. L. Martin, K. Morokuma, V. G. Zakrzewski, G. A. Voth, 
 P. Salvador, J. J. Dannenberg, S. Dapprich, A. D. Daniels, 
 O. Farkas, J. B. Foresman, J. V. Ortiz, J. Cioslowski, 
 and D. J. Fox, Gaussian, Inc., Wallingford CT, 2009.
 
 ******************************************
 Gaussian 09:  EM64L-G09RevA.02 11-Jun-2009
                 6-Jan-2022 
 ******************************************
 %Mem=3800MB
 %NProcShared=6
 Will use up to    6 processors via shared memory.
 %chk=/home/itamar/Aromaticity-test-set/T5-Pyramid/25/opt/pyramid-25-opt.chk
 ---------------------------------
 #P MP2/6-311++G** OPT DENSITY=MP2
 ---------------------------------
 1/18=20,19=15,38=1/1,3;
 2/9=110,12=2,17=6,18=5,40=1/2;
 3/5=4,6=6,7=1111,11=9,16=1,25=1,30=1,71=1/1,2,3;
 4//1;
 5/5=2,38=5/2;
 8/6=4,10=2/1;
 9/15=2,16=-3/6;
 10/5=1/2;
 6/7=2,8=2,9=2,10=2,22=2/1;
 7/12=2/1,2,3,16;
 1/18=20,19=15/3(2);
 2/9=110/2;
 99//99;
 2/9=110/2;
 3/5=4,6=6,7=1111,11=9,16=1,25=1,30=1,71=1/1,2,3;
 4/5=5,16=3/1;
 5/5=2,38=5/2;
 8/6=4,10=2/1;
 9/15=2,16=-3/6;
 10/5=1/2;
 7/12=2/1,2,3,16;
 1/18=20,19=15/3(-8);
 2/9=110/2;
 6/7=2,8=2,9=2,10=2,22=2/1;
 99//99;
 Leave Link    1 at Thu Jan  6 16:23:55 2022, MaxMem=  498073600 cpu:       0.3
 (Enter /apps/software//g09/l101.exe)
 ----------
 Pyramid-25
 ----------
 Symbolic Z-matrix:
 Charge =  0 Multiplicity = 1
 6                    -0.06556  -0.69951  -1.21154 
 6                    -0.06556   0.69951  -1.21154 
 6                    -0.06559   1.39908   0. 
 6                    -0.06556   0.69951   1.21154 
 6                    -0.06556  -0.69951   1.21154 
 6                    -0.06559  -1.39908   0. 
 1                     0.39343  -1.19156  -2.06403 
 1                     0.39343   1.19156  -2.06403 
 1                     0.39339   2.38337   0. 
 1                     0.39343   1.19156   2.06403 
 1                     0.39343  -1.19156   2.06403 
 1                     0.39339  -2.38337   0. 
 
 NAtoms=     12 NQM=     12 NQMF=      0 NMic=      0 NMicF=      0 NTot=     12.
                    Isotopes and Nuclear Properties:
 (Nuclear quadrupole moments (NQMom) in fm**2, nuclear magnetic moments (NMagM)
  in nuclear magnetons)

  Atom         1           2           3           4           5           6           7           8           9          10
 IAtWgt=          12          12          12          12          12          12           1           1           1           1
 AtmWgt=  12.0000000  12.0000000  12.0000000  12.0000000  12.0000000  12.0000000   1.0078250   1.0078250   1.0078250   1.0078250
 NucSpn=           0           0           0           0           0           0           1           1           1           1
 AtZEff=   0.0000000   0.0000000   0.0000000   0.0000000   0.0000000   0.0000000   0.0000000   0.0000000   0.0000000   0.0000000
 NQMom=    0.0000000   0.0000000   0.0000000   0.0000000   0.0000000   0.0000000   0.0000000   0.0000000   0.0000000   0.0000000
 NMagM=    0.0000000   0.0000000   0.0000000   0.0000000   0.0000000   0.0000000   2.7928460   2.7928460   2.7928460   2.7928460

  Atom        11          12
 IAtWgt=           1           1
 AtmWgt=   1.0078250   1.0078250
 NucSpn=           1           1
 AtZEff=   0.0000000   0.0000000
 NQMom=    0.0000000   0.0000000
 NMagM=    2.7928460   2.7928460
 Leave Link  101 at Thu Jan  6 16:23:55 2022, MaxMem=  498073600 cpu:       0.3
 (Enter /apps/software//g09/l103.exe)

 GradGradGradGradGradGradGradGradGradGradGradGradGradGradGradGradGradGrad
 Berny optimization.
 Initialization pass.
                           ----------------------------
                           !    Initial Parameters    !
                           ! (Angstroms and Degrees)  !
 --------------------------                            --------------------------
 ! Name  Definition              Value          Derivative Info.                !
 --------------------------------------------------------------------------------
 ! R1    R(1,2)                  1.399          estimate D2E/DX2                !
 ! R2    R(1,6)                  1.399          estimate D2E/DX2                !
 ! R3    R(1,7)                  1.0861         estimate D2E/DX2                !
 ! R4    R(2,3)                  1.399          estimate D2E/DX2                !
 ! R5    R(2,8)                  1.0861         estimate D2E/DX2                !
 ! R6    R(3,4)                  1.399          estimate D2E/DX2                !
 ! R7    R(3,9)                  1.086          estimate D2E/DX2                !
 ! R8    R(4,5)                  1.399          estimate D2E/DX2                !
 ! R9    R(4,10)                 1.0861         estimate D2E/DX2                !
 ! R10   R(5,6)                  1.399          estimate D2E/DX2                !
 ! R11   R(5,11)                 1.0861         estimate D2E/DX2                !
 ! R12   R(6,12)                 1.086          estimate D2E/DX2                !
 ! A1    A(2,1,6)              120.0031         estimate D2E/DX2                !
 ! A2    A(2,1,7)              116.9399         estimate D2E/DX2                !
 ! A3    A(6,1,7)              116.9505         estimate D2E/DX2                !
 ! A4    A(1,2,3)              120.0031         estimate D2E/DX2                !
 ! A5    A(1,2,8)              116.9398         estimate D2E/DX2                !
 ! A6    A(3,2,8)              116.9505         estimate D2E/DX2                !
 ! A7    A(2,3,4)              119.9938         estimate D2E/DX2                !
 ! A8    A(2,3,9)              116.9483         estimate D2E/DX2                !
 ! A9    A(4,3,9)              116.9483         estimate D2E/DX2                !
 ! A10   A(3,4,5)              120.0031         estimate D2E/DX2                !
 ! A11   A(3,4,10)             116.9505         estimate D2E/DX2                !
 ! A12   A(5,4,10)             116.9398         estimate D2E/DX2                !
 ! A13   A(4,5,6)              120.0031         estimate D2E/DX2                !
 ! A14   A(4,5,11)             116.9399         estimate D2E/DX2                !
 ! A15   A(6,5,11)             116.9505         estimate D2E/DX2                !
 ! A16   A(1,6,5)              119.9938         estimate D2E/DX2                !
 ! A17   A(1,6,12)             116.9483         estimate D2E/DX2                !
 ! A18   A(5,6,12)             116.9483         estimate D2E/DX2                !
 ! D1    D(6,1,2,3)              0.0001         estimate D2E/DX2                !
 ! D2    D(6,1,2,8)            151.7032         estimate D2E/DX2                !
 ! D3    D(7,1,2,3)           -151.7032         estimate D2E/DX2                !
 ! D4    D(7,1,2,8)              0.0            estimate D2E/DX2                !
 ! D5    D(2,1,6,5)             -0.0032         estimate D2E/DX2                !
 ! D6    D(2,1,6,12)          -151.6995         estimate D2E/DX2                !
 ! D7    D(7,1,6,5)            151.6972         estimate D2E/DX2                !
 ! D8    D(7,1,6,12)             0.0009         estimate D2E/DX2                !
 ! D9    D(1,2,3,4)              0.003          estimate D2E/DX2                !
 ! D10   D(1,2,3,9)            151.6993         estimate D2E/DX2                !
 ! D11   D(8,2,3,4)           -151.6973         estimate D2E/DX2                !
 ! D12   D(8,2,3,9)             -0.0009         estimate D2E/DX2                !
 ! D13   D(2,3,4,5)             -0.003          estimate D2E/DX2                !
 ! D14   D(2,3,4,10)           151.6973         estimate D2E/DX2                !
 ! D15   D(9,3,4,5)           -151.6993         estimate D2E/DX2                !
 ! D16   D(9,3,4,10)             0.0009         estimate D2E/DX2                !
 ! D17   D(3,4,5,6)             -0.0001         estimate D2E/DX2                !
 ! D18   D(3,4,5,11)           151.7032         estimate D2E/DX2                !
 ! D19   D(10,4,5,6)          -151.7032         estimate D2E/DX2                !
 ! D20   D(10,4,5,11)            0.0            estimate D2E/DX2                !
 ! D21   D(4,5,6,1)              0.0032         estimate D2E/DX2                !
 ! D22   D(4,5,6,12)           151.6995         estimate D2E/DX2                !
 ! D23   D(11,5,6,1)          -151.6972         estimate D2E/DX2                !
 ! D24   D(11,5,6,12)           -0.0009         estimate D2E/DX2                !
 --------------------------------------------------------------------------------
 Trust Radius=3.00D-01 FncErr=1.00D-07 GrdErr=1.00D-07
 Number of steps in this run=  64 maximum allowed number of steps= 100.
 GradGradGradGradGradGradGradGradGradGradGradGradGradGradGradGradGradGrad

 Leave Link  103 at Thu Jan  6 16:23:56 2022, MaxMem=  498073600 cpu:       0.0
 (Enter /apps/software//g09/l202.exe)
                          Input orientation:                          
 ---------------------------------------------------------------------
 Center     Atomic      Atomic             Coordinates (Angstroms)
 Number     Number       Type             X           Y           Z
 ---------------------------------------------------------------------
      1          6           0       -0.065558   -0.699513   -1.211536
      2          6           0       -0.065559    0.699512   -1.211536
      3          6           0       -0.065591    1.399080    0.000000
      4          6           0       -0.065559    0.699512    1.211536
      5          6           0       -0.065558   -0.699513    1.211536
      6          6           0       -0.065591   -1.399081    0.000000
      7          1           0        0.393431   -1.191558   -2.064031
      8          1           0        0.393430    1.191557   -2.064031
      9          1           0        0.393390    2.383369    0.000000
     10          1           0        0.393430    1.191557    2.064031
     11          1           0        0.393431   -1.191558    2.064031
     12          1           0        0.393389   -2.383368    0.000000
 ---------------------------------------------------------------------
                    Distance matrix (angstroms):
                    1          2          3          4          5
     1  C    0.000000
     2  C    1.399025   0.000000
     3  C    2.423203   1.399005   0.000000
     4  C    2.797954   2.423072   1.399005   0.000000
     5  C    2.423072   2.797954   2.423203   1.399025   0.000000
     6  C    1.399005   2.423203   2.798161   2.423203   1.399005
     7  H    1.086060   2.124515   3.343999   3.810007   3.343967
     8  H    2.124515   1.086060   2.124615   3.343967   3.810007
     9  H    3.344042   2.124577   1.086043   2.124577   3.344042
    10  H    3.810007   3.343967   2.124615   1.086060   2.124515
    11  H    3.343967   3.810007   3.343999   2.124515   1.086060
    12  H    2.124575   3.344040   3.810194   3.344040   2.124575
                    6          7          8          9         10
     6  C    0.000000
     7  H    2.124615   0.000000
     8  H    3.343999   2.383115   0.000000
     9  H    3.810196   4.127993   2.383409   0.000000
    10  H    3.343999   4.766564   4.128062   2.383409   0.000000
    11  H    2.124615   4.128062   4.766564   4.127993   2.383115
    12  H    1.086040   2.383408   4.127991   4.766737   4.127991
                   11         12
    11  H    0.000000
    12  H    2.383408   0.000000
 Stoichiometry    C6H6
 Framework group  CS[SG(C2H2),X(C4H4)]
 Deg. of freedom    17
 Full point group                 CS      NOp   2
 Largest Abelian subgroup         CS      NOp   2
 Largest concise Abelian subgroup CS      NOp   2
                         Standard orientation:                         
 ---------------------------------------------------------------------
 Center     Atomic      Atomic             Coordinates (Angstroms)
 Number     Number       Type             X           Y           Z
 ---------------------------------------------------------------------
      1          6           0        0.065559   -0.699513    1.211536
      2          6           0        0.065559    0.699512    1.211536
      3          6           0        0.065590    1.399080    0.000000
      4          6           0        0.065559    0.699512   -1.211536
      5          6           0        0.065559   -0.699513   -1.211536
      6          6           0        0.065592   -1.399081    0.000000
      7          1           0       -0.393430   -1.191558    2.064031
      8          1           0       -0.393431    1.191557    2.064031
      9          1           0       -0.393392    2.383369    0.000000
     10          1           0       -0.393431    1.191557   -2.064031
     11          1           0       -0.393430   -1.191558   -2.064031
     12          1           0       -0.393387   -2.383368    0.000000
 ---------------------------------------------------------------------
 Rotational constants (GHZ):      5.6908988      5.6902983      2.8834556
 Leave Link  202 at Thu Jan  6 16:23:56 2022, MaxMem=  498073600 cpu:       0.0
 (Enter /apps/software//g09/l301.exe)
 Standard basis: 6-311++G(d,p) (5D, 7F)
 Ernie: Thresh=  0.10000D-02 Tol=  0.10000D-05 Strict=F.
 There are   102 symmetry adapted basis functions of A'  symmetry.
 There are    72 symmetry adapted basis functions of A"  symmetry.
 Integral buffers will be    131072 words long.
 Raffenetti 1 integral format.
 Two-electron integral symmetry is turned on.
   174 basis functions,   270 primitive gaussians,   180 cartesian basis functions
    21 alpha electrons       21 beta electrons
       nuclear repulsion energy       203.6009674645 Hartrees.
 IExCor=    0 DFT=F Ex=HF Corr=None ExCW=0 ScaHFX=  1.000000
 ScaDFX=  1.000000  1.000000  1.000000  1.000000 ScalE2=  1.000000  1.000000
 IRadAn=      0 IRanWt=     -1 IRanGd=            0 ICorTp=0
 NAtoms=   12 NActive=   12 NUniq=    8 SFac= 1.69D+00 NAtFMM=   80 NAOKFM=F Big=F
 Leave Link  301 at Thu Jan  6 16:23:56 2022, MaxMem=  498073600 cpu:       0.3
 (Enter /apps/software//g09/l302.exe)
 NPDir=0 NMtPBC=     1 NCelOv=     1 NCel=       1 NClECP=     1 NCelD=      1
         NCelK=      1 NCelE2=     1 NClLst=     1 CellRange=     0.0.
 One-electron integrals computed using PRISM.
 One-electron integral symmetry used in STVInt
 NBasis=   174 RedAO= T  NBF=   102    72
 NBsUse=   174 1.00D-06 NBFU=   102    72
 Leave Link  302 at Thu Jan  6 16:23:56 2022, MaxMem=  498073600 cpu:       1.2
 (Enter /apps/software//g09/l303.exe)
 DipDrv:  MaxL=1.
 Leave Link  303 at Thu Jan  6 16:23:56 2022, MaxMem=  498073600 cpu:       0.2
 (Enter /apps/software//g09/l401.exe)
 Harris functional with IExCor=  205 diagonalized for initial guess.
 ExpMin= 3.60D-02 ExpMax= 4.56D+03 ExpMxC= 6.82D+02 IAcc=3 IRadAn=         0 AccDes= 0.00D+00
 HarFok:  IExCor=  205 AccDes= 0.00D+00 IRadAn=         0 IDoV= 1
 ScaDFX=  1.000000  1.000000  1.000000  1.000000
 FoFCou: FMM=F IPFlag=           0 FMFlag=      100000 FMFlg1=           0
         NFxFlg=           0 DoJE=T BraDBF=F KetDBF=T FulRan=T
         Omega=  0.000000  0.000000  1.000000  0.000000  0.000000 ICntrl=     500 IOpCl=  0
         NMat0=    1 NMatS0=    1 NMatT0=    0 NMatD0=    1 NMtDS0=    0 NMtDT0=    0
         I1Cent=           4 NGrid=           0.
 Petite list used in FoFCou.
 Harris En= -231.114115035482    
 Initial guess orbital symmetries:
       Occupied  (A') (A') (A") (A') (A") (A') (A') (A') (A") (A')
                 (A") (A') (A") (A') (A') (A") (A') (A') (A") (A')
                 (A")
       Virtual   (A') (A") (A') (A') (A") (A') (A") (A') (A') (A')
                 (A') (A") (A') (A") (A') (A") (A') (A") (A') (A')
                 (A") (A") (A') (A') (A") (A') (A') (A") (A') (A')
                 (A") (A') (A') (A") (A") (A') (A") (A') (A') (A")
                 (A') (A") (A') (A") (A') (A") (A') (A') (A') (A")
                 (A') (A") (A') (A") (A') (A") (A') (A') (A') (A")
                 (A") (A') (A') (A") (A') (A") (A') (A') (A") (A')
                 (A") (A') (A") (A") (A') (A') (A') (A') (A") (A')
                 (A") (A') (A") (A') (A") (A') (A') (A") (A') (A")
                 (A') (A") (A") (A') (A') (A') (A") (A") (A') (A")
                 (A") (A') (A") (A') (A') (A') (A") (A") (A') (A')
                 (A') (A") (A') (A") (A") (A') (A') (A") (A') (A')
                 (A') (A") (A") (A') (A') (A') (A") (A") (A') (A')
                 (A") (A") (A') (A") (A') (A') (A") (A') (A") (A')
                 (A') (A") (A') (A") (A') (A') (A") (A') (A') (A")
                 (A") (A') (A')
 The electronic state of the initial guess is 1-A'.
 Leave Link  401 at Thu Jan  6 16:23:57 2022, MaxMem=  498073600 cpu:       2.9
 (Enter /apps/software//g09/l502.exe)
 Closed shell SCF:
 Requested convergence on RMS density matrix=1.00D-08 within 128 cycles.
 Requested convergence on MAX density matrix=1.00D-06.
 Requested convergence on             energy=1.00D-06.
 No special actions if energy rises.
 Using DIIS extrapolation, IDIIS=  1040.
 Integral symmetry usage will be decided dynamically.
 Keep R1 ints in memory in canonical form, NReq=135772999.
 IEnd=      118010 IEndB=      118010 NGot=   498073600 MDV=   365314588
 LenX=   365314588 LenY=   365281747
 Symmetry not used in FoFDir.
 MinBra= 0 MaxBra= 2 Meth= 1.
 IRaf=       0 NMat=   1 IRICut=       1 DoRegI=T DoRafI=F ISym2E= 0 JSym2E=0.

 Cycle   1  Pass 1  IDiag  1:
 E= -230.406715986760    
 DIIS: error= 5.94D-02 at cycle   1 NSaved=   1.
 NSaved= 1 IEnMin= 1 EnMin= -230.406715986760     IErMin= 1 ErrMin= 5.94D-02
 ErrMax= 5.94D-02 EMaxC= 1.00D-01 BMatC= 5.15D-01 BMatP= 5.15D-01
 IDIUse=3 WtCom= 4.06D-01 WtEn= 5.94D-01
 Coeff-Com:  0.100D+01
 Coeff-En:   0.100D+01
 Coeff:      0.100D+01
 Gap=     0.462 Goal=   None    Shift=    0.000
 GapD=    0.462 DampG=2.000 DampE=0.500 DampFc=1.0000 IDamp=-1.
 RMSDP=5.84D-03 MaxDP=1.45D-01              OVMax= 1.62D-01

 Cycle   2  Pass 1  IDiag  1:
 E= -230.659701850535     Delta-E=       -0.252985863775 Rises=F Damp=F
 DIIS: error= 1.75D-02 at cycle   2 NSaved=   2.
 NSaved= 2 IEnMin= 2 EnMin= -230.659701850535     IErMin= 2 ErrMin= 1.75D-02
 ErrMax= 1.75D-02 EMaxC= 1.00D-01 BMatC= 4.98D-02 BMatP= 5.15D-01
 IDIUse=3 WtCom= 8.25D-01 WtEn= 1.75D-01
 Coeff-Com:  0.160D+00 0.840D+00
 Coeff-En:   0.000D+00 0.100D+01
 Coeff:      0.132D+00 0.868D+00
 Gap=     0.415 Goal=   None    Shift=    0.000
 RMSDP=4.70D-03 MaxDP=1.26D-01 DE=-2.53D-01 OVMax= 6.01D-02

 Cycle   3  Pass 1  IDiag  1:
 E= -230.703734441893     Delta-E=       -0.044032591358 Rises=F Damp=F
 DIIS: error= 6.18D-03 at cycle   3 NSaved=   3.
 NSaved= 3 IEnMin= 3 EnMin= -230.703734441893     IErMin= 3 ErrMin= 6.18D-03
 ErrMax= 6.18D-03 EMaxC= 1.00D-01 BMatC= 5.07D-03 BMatP= 4.98D-02
 IDIUse=3 WtCom= 9.38D-01 WtEn= 6.18D-02
 Coeff-Com: -0.198D-01 0.212D+00 0.808D+00
 Coeff-En:   0.000D+00 0.000D+00 0.100D+01
 Coeff:     -0.186D-01 0.199D+00 0.820D+00
 Gap=     0.378 Goal=   None    Shift=    0.000
 RMSDP=6.48D-04 MaxDP=1.45D-02 DE=-4.40D-02 OVMax= 1.48D-02

 Cycle   4  Pass 1  IDiag  1:
 E= -230.708647343473     Delta-E=       -0.004912901580 Rises=F Damp=F
 DIIS: error= 7.00D-04 at cycle   4 NSaved=   4.
 NSaved= 4 IEnMin= 4 EnMin= -230.708647343473     IErMin= 4 ErrMin= 7.00D-04
 ErrMax= 7.00D-04 EMaxC= 1.00D-01 BMatC= 3.27D-05 BMatP= 5.07D-03
 IDIUse=3 WtCom= 9.93D-01 WtEn= 7.00D-03
 Coeff-Com: -0.188D-02-0.143D-01 0.481D-02 0.101D+01
 Coeff-En:   0.000D+00 0.000D+00 0.000D+00 0.100D+01
 Coeff:     -0.187D-02-0.142D-01 0.478D-02 0.101D+01
 Gap=     0.379 Goal=   None    Shift=    0.000
 RMSDP=8.62D-05 MaxDP=6.66D-04 DE=-4.91D-03 OVMax= 1.99D-03

 Cycle   5  Pass 1  IDiag  1:
 E= -230.708699302859     Delta-E=       -0.000051959386 Rises=F Damp=F
 DIIS: error= 1.23D-04 at cycle   5 NSaved=   5.
 NSaved= 5 IEnMin= 5 EnMin= -230.708699302859     IErMin= 5 ErrMin= 1.23D-04
 ErrMax= 1.23D-04 EMaxC= 1.00D-01 BMatC= 1.85D-06 BMatP= 3.27D-05
 IDIUse=3 WtCom= 9.99D-01 WtEn= 1.23D-03
 Coeff-Com:  0.108D-02-0.819D-02-0.385D-01-0.167D+00 0.121D+01
 Coeff-En:   0.000D+00 0.000D+00 0.000D+00 0.000D+00 0.100D+01
 Coeff:      0.107D-02-0.818D-02-0.384D-01-0.166D+00 0.121D+01
 Gap=     0.379 Goal=   None    Shift=    0.000
 RMSDP=2.87D-05 MaxDP=3.91D-04 DE=-5.20D-05 OVMax= 6.47D-04

 Cycle   6  Pass 1  IDiag  1:
 E= -230.708703218280     Delta-E=       -0.000003915421 Rises=F Damp=F
 DIIS: error= 1.10D-05 at cycle   6 NSaved=   6.
 NSaved= 6 IEnMin= 6 EnMin= -230.708703218280     IErMin= 6 ErrMin= 1.10D-05
 ErrMax= 1.10D-05 EMaxC= 1.00D-01 BMatC= 1.66D-08 BMatP= 1.85D-06
 IDIUse=1 WtCom= 1.00D+00 WtEn= 0.00D+00
 Coeff-Com: -0.614D-04 0.771D-03 0.362D-02 0.579D-02-0.127D+00 0.112D+01
 Coeff:     -0.614D-04 0.771D-03 0.362D-02 0.579D-02-0.127D+00 0.112D+01
 Gap=     0.379 Goal=   None    Shift=    0.000
 RMSDP=4.72D-06 MaxDP=6.84D-05 DE=-3.92D-06 OVMax= 5.61D-05

 Cycle   7  Pass 1  IDiag  1:
 E= -230.708703258863     Delta-E=       -0.000000040583 Rises=F Damp=F
 DIIS: error= 4.20D-06 at cycle   7 NSaved=   7.
 NSaved= 7 IEnMin= 7 EnMin= -230.708703258863     IErMin= 7 ErrMin= 4.20D-06
 ErrMax= 4.20D-06 EMaxC= 1.00D-01 BMatC= 1.39D-09 BMatP= 1.66D-08
 IDIUse=1 WtCom= 1.00D+00 WtEn= 0.00D+00
 Coeff-Com: -0.453D-04 0.382D-03 0.174D-02 0.637D-02-0.564D-01 0.116D+00
 Coeff-Com:  0.932D+00
 Coeff:     -0.453D-04 0.382D-03 0.174D-02 0.637D-02-0.564D-01 0.116D+00
 Coeff:      0.932D+00
 Gap=     0.379 Goal=   None    Shift=    0.000
 RMSDP=1.99D-06 MaxDP=5.59D-05 DE=-4.06D-08 OVMax= 1.37D-05

 Cycle   8  Pass 1  IDiag  1:
 E= -230.708703261544     Delta-E=       -0.000000002681 Rises=F Damp=F
 DIIS: error= 9.51D-07 at cycle   8 NSaved=   8.
 NSaved= 8 IEnMin= 8 EnMin= -230.708703261544     IErMin= 8 ErrMin= 9.51D-07
 ErrMax= 9.51D-07 EMaxC= 1.00D-01 BMatC= 1.09D-10 BMatP= 1.39D-09
 IDIUse=1 WtCom= 1.00D+00 WtEn= 0.00D+00
 Coeff-Com:  0.878D-05-0.101D-03-0.507D-03-0.134D-02 0.183D-01-0.113D+00
 Coeff-Com: -0.133D+00 0.123D+01
 Coeff:      0.878D-05-0.101D-03-0.507D-03-0.134D-02 0.183D-01-0.113D+00
 Coeff:     -0.133D+00 0.123D+01
 Gap=     0.379 Goal=   None    Shift=    0.000
 RMSDP=5.69D-07 MaxDP=1.46D-05 DE=-2.68D-09 OVMax= 7.45D-06

 Cycle   9  Pass 1  IDiag  1:
 E= -230.708703261924     Delta-E=       -0.000000000380 Rises=F Damp=F
 DIIS: error= 3.25D-07 at cycle   9 NSaved=   9.
 NSaved= 9 IEnMin= 9 EnMin= -230.708703261924     IErMin= 9 ErrMin= 3.25D-07
 ErrMax= 3.25D-07 EMaxC= 1.00D-01 BMatC= 4.46D-12 BMatP= 1.09D-10
 IDIUse=1 WtCom= 1.00D+00 WtEn= 0.00D+00
 Coeff-Com: -0.181D-05 0.258D-04 0.137D-03 0.279D-03-0.510D-02 0.392D-01
 Coeff-Com:  0.178D-01-0.472D+00 0.142D+01
 Coeff:     -0.181D-05 0.258D-04 0.137D-03 0.279D-03-0.510D-02 0.392D-01
 Coeff:      0.178D-01-0.472D+00 0.142D+01
 Gap=     0.379 Goal=   None    Shift=    0.000
 RMSDP=7.23D-08 MaxDP=1.24D-06 DE=-3.80D-10 OVMax= 2.41D-06

 Cycle  10  Pass 1  IDiag  1:
 E= -230.708703261944     Delta-E=       -0.000000000021 Rises=F Damp=F
 DIIS: error= 5.61D-08 at cycle  10 NSaved=  10.
 NSaved=10 IEnMin=10 EnMin= -230.708703261944     IErMin=10 ErrMin= 5.61D-08
 ErrMax= 5.61D-08 EMaxC= 1.00D-01 BMatC= 2.04D-13 BMatP= 4.46D-12
 IDIUse=1 WtCom= 1.00D+00 WtEn= 0.00D+00
 Coeff-Com: -0.127D-06 0.966D-06 0.954D-06 0.200D-04-0.332D-04-0.833D-03
 Coeff-Com:  0.306D-02 0.138D-01-0.189D+00 0.117D+01
 Coeff:     -0.127D-06 0.966D-06 0.954D-06 0.200D-04-0.332D-04-0.833D-03
 Coeff:      0.306D-02 0.138D-01-0.189D+00 0.117D+01
 Gap=     0.379 Goal=   None    Shift=    0.000
 RMSDP=6.95D-08 MaxDP=1.85D-06 DE=-2.05D-11 OVMax= 4.32D-07

 Cycle  11  Pass 1  IDiag  1:
 E= -230.708703261946     Delta-E=       -0.000000000002 Rises=F Damp=F
 DIIS: error= 1.69D-08 at cycle  11 NSaved=  11.
 NSaved=11 IEnMin=11 EnMin= -230.708703261946     IErMin=11 ErrMin= 1.69D-08
 ErrMax= 1.69D-08 EMaxC= 1.00D-01 BMatC= 3.05D-14 BMatP= 2.04D-13
 IDIUse=1 WtCom= 1.00D+00 WtEn= 0.00D+00
 Coeff-Com:  0.142D-06-0.223D-05-0.131D-04-0.226D-04 0.491D-03-0.406D-02
 Coeff-Com: -0.864D-03 0.496D-01-0.188D+00 0.300D+00 0.843D+00
 Coeff:      0.142D-06-0.223D-05-0.131D-04-0.226D-04 0.491D-03-0.406D-02
 Coeff:     -0.864D-03 0.496D-01-0.188D+00 0.300D+00 0.843D+00
 Gap=     0.379 Goal=   None    Shift=    0.000
 RMSDP=1.96D-08 MaxDP=5.40D-07 DE=-1.88D-12 OVMax= 1.02D-07

 Cycle  12  Pass 1  IDiag  1:
 E= -230.708703261946     Delta-E=        0.000000000000 Rises=F Damp=F
 DIIS: error= 3.99D-09 at cycle  12 NSaved=  12.
 NSaved=12 IEnMin=12 EnMin= -230.708703261946     IErMin=12 ErrMin= 3.99D-09
 ErrMax= 3.99D-09 EMaxC= 1.00D-01 BMatC= 1.54D-15 BMatP= 3.05D-14
 IDIUse=1 WtCom= 1.00D+00 WtEn= 0.00D+00
 Coeff-Com: -0.192D-07 0.392D-06 0.290D-05 0.211D-05-0.104D-03 0.953D-03
 Coeff-Com: -0.572D-05-0.120D-01 0.561D-01-0.163D+00-0.174D+00 0.129D+01
 Coeff:     -0.192D-07 0.392D-06 0.290D-05 0.211D-05-0.104D-03 0.953D-03
 Coeff:     -0.572D-05-0.120D-01 0.561D-01-0.163D+00-0.174D+00 0.129D+01
 Gap=     0.379 Goal=   None    Shift=    0.000
 RMSDP=4.37D-09 MaxDP=1.29D-07 DE=-1.14D-13 OVMax= 3.30D-08

 SCF Done:  E(RHF) =  -230.708703262     A.U. after   12 cycles
             Convg  =    0.4366D-08             -V/T =  2.0013
 KE= 2.304037688575D+02 PE=-9.438005798830D+02 EE= 2.790871402992D+02
 Leave Link  502 at Thu Jan  6 16:24:06 2022, MaxMem=  498073600 cpu:      53.3
 (Enter /apps/software//g09/l801.exe)
 ExpMin= 3.60D-02 ExpMax= 4.56D+03 ExpMxC= 6.82D+02 IAcc=3 IRadAn=         5 AccDes= 0.00D+00
 HarFok:  IExCor=  205 AccDes= 0.00D+00 IRadAn=         5 IDoV=-2
 ScaDFX=  1.000000  1.000000  1.000000  1.000000
 Largest valence mixing into a core orbital is  1.53D-04
 Largest core mixing into a valence orbital is  3.97D-05
 Range of M.O.s used for correlation:     7   174
 NBasis=   174 NAE=    21 NBE=    21 NFC=     6 NFV=     0
 NROrb=    168 NOA=    15 NOB=    15 NVA=   153 NVB=   153

 **** Warning!!: The largest alpha MO coefficient is  0.17827805D+03

 Leave Link  801 at Thu Jan  6 16:24:08 2022, MaxMem=  498073600 cpu:       1.2
 (Enter /apps/software//g09/l906.exe)
 Frozen-core derivative calculation, NFC=   6 NFV=   0.
 FulOut=F Deriv=T AODrv=T NAtomX=    12
   MMem=         295  MDisk=          15 MDiskD=          15
  W3Min=      657720 MinDsk=     1009670 NBas6D=         180
 NBas2D=       16542    NTT=       16290    LW2=     2040000
    MDV=   497688341 MDiskM=       38247 NBas2p=        9320
 Fully direct method using O(ONN) memory.
 IMap=   1   2   3   4   5   6   7   8   9  10  11  12  13  14  15  16  17  18  19  20
 IMap=  21
 JobTyp=1 Pass  1:  I=   7 to  21 NPSUse=  6 ParTrn=T ParDer=T DoDerP=T.
 Spin components of T(2) and E(2):
     alpha-alpha T2 =       0.4332411989D-01 E2=     -0.1089842950D+00
     alpha-beta  T2 =       0.2288031316D+00 E2=     -0.6188153283D+00
     beta-beta   T2 =       0.4332411989D-01 E2=     -0.1089842950D+00
 The integrals were generated   1 times.
 ANorm=    0.1146931285D+01
 E2 =    -0.8367839183D+00 EUMP2 =    -0.23154548718023D+03
 Leave Link  906 at Thu Jan  6 16:24:19 2022, MaxMem=  498073600 cpu:      64.9
 (Enter /apps/software//g09/l1002.exe)
 Minotr:  Closed shell wavefunction.
          Computing MP2/KS-MP2 derivatives.
          Using Z-Vector for PSCF gradient.
          Skipping F1 and S1 gradient terms here.
          IDoAtm=111111111111
          Frozen-core window.
          Direct CPHF calculation.
          Differentiating once with respect to electric field.
                with respect to dipole field.
          Differentiating once with respect to nuclear coordinates.
          Using symmetry in CPHF.
          Requested convergence is 1.0D-10 RMS, and 1.0D-09 maximum.
          NewPWx=F KeepS1=T KeepF1=T KeepIn=T MapXYZ=F SortEE=F KeepMc=T.
          MDV=     498073476 using IRadAn=       0.
          Keep R1 ints in memory in canonical form, NReq=133511850.
 Symmetry not used in FoFDir.
 MinBra= 0 MaxBra= 2 Meth= 1.
 IRaf=       0 NMat=   1 IRICut=       1 DoRegI=T DoRafI=F ISym2E= 0 JSym2E=0.
          Solving linear equations separately, MaxMat=       0.
          There are     1 degrees of freedom in the 1st order CPHF.  IDoFFX=0.
 LinEq1:  Iter=  0 NonCon=     1 RMS=3.49D-03 Max=5.16D-02
 AX will form     1 AO Fock derivatives at one time.
 LinEq1:  Iter=  1 NonCon=     1 RMS=8.41D-04 Max=1.44D-02
 LinEq1:  Iter=  2 NonCon=     1 RMS=2.43D-04 Max=5.31D-03
 LinEq1:  Iter=  3 NonCon=     1 RMS=5.43D-05 Max=6.99D-04
 LinEq1:  Iter=  4 NonCon=     1 RMS=1.03D-05 Max=1.50D-04
 LinEq1:  Iter=  5 NonCon=     1 RMS=2.34D-06 Max=3.92D-05
 LinEq1:  Iter=  6 NonCon=     1 RMS=6.51D-07 Max=8.68D-06
 LinEq1:  Iter=  7 NonCon=     1 RMS=9.20D-08 Max=1.58D-06
 LinEq1:  Iter=  8 NonCon=     1 RMS=8.80D-09 Max=1.41D-07
 LinEq1:  Iter=  9 NonCon=     1 RMS=1.08D-09 Max=1.64D-08
 LinEq1:  Iter= 10 NonCon=     1 RMS=3.83D-10 Max=6.86D-09
 LinEq1:  Iter= 11 NonCon=     1 RMS=9.65D-11 Max=1.26D-09
 LinEq1:  Iter= 12 NonCon=     0 RMS=1.87D-11 Max=4.39D-10
 Linear equations converged to 1.000D-10 1.000D-09 after    12 iterations.
 End of Minotr Frequency-dependent properties file   721 does not exist.
 End of Minotr Frequency-dependent properties file   722 does not exist.
 Leave Link 1002 at Thu Jan  6 16:24:25 2022, MaxMem=  498073600 cpu:      36.5
 (Enter /apps/software//g09/l601.exe)
 Copying SCF densities to generalized density rwf, IOpCl= 0 IROHF=0.

 **********************************************************************

            Population analysis using the MP2 density.

 **********************************************************************

 Orbital symmetries:
       Occupied  (A') (A') (A") (A') (A") (A') (A') (A') (A") (A')
                 (A") (A') (A') (A") (A') (A") (A') (A') (A") (A')
                 (A")
       Virtual   (A') (A') (A") (A') (A") (A') (A') (A") (A') (A')
                 (A") (A') (A") (A") (A') (A') (A') (A") (A') (A')
                 (A") (A') (A") (A') (A") (A') (A') (A') (A") (A')
                 (A") (A') (A") (A') (A') (A") (A') (A") (A") (A')
                 (A') (A') (A") (A') (A") (A') (A') (A") (A') (A")
                 (A') (A") (A') (A") (A') (A") (A') (A') (A") (A')
                 (A") (A') (A") (A') (A') (A") (A') (A') (A") (A')
                 (A') (A") (A') (A") (A') (A") (A') (A') (A") (A')
                 (A") (A') (A") (A') (A") (A') (A') (A") (A') (A")
                 (A') (A") (A') (A') (A") (A') (A") (A') (A") (A")
                 (A") (A') (A") (A') (A') (A') (A") (A") (A') (A')
                 (A') (A") (A') (A") (A') (A") (A") (A') (A') (A")
                 (A') (A') (A') (A") (A') (A') (A") (A") (A') (A")
                 (A') (A") (A') (A") (A') (A') (A") (A') (A") (A')
                 (A') (A") (A') (A") (A') (A') (A") (A') (A') (A")
                 (A") (A') (A')
 The electronic state is 1-A'.
 Alpha  occ. eigenvalues --  -11.24369 -11.24313 -11.24313 -11.24193 -11.24193
 Alpha  occ. eigenvalues --  -11.24134  -1.15493  -1.02020  -1.02018  -0.82624
 Alpha  occ. eigenvalues --   -0.82622  -0.71035  -0.63677  -0.62142  -0.58951
 Alpha  occ. eigenvalues --   -0.58947  -0.50283  -0.49215  -0.49214  -0.33686
 Alpha  occ. eigenvalues --   -0.33684
 Alpha virt. eigenvalues --    0.04215   0.05361   0.05361   0.07145   0.07145
 Alpha virt. eigenvalues --    0.09347   0.09767   0.09768   0.12140   0.14354
 Alpha virt. eigenvalues --    0.14355   0.16376   0.16475   0.18286   0.18287
 Alpha virt. eigenvalues --    0.19139   0.19407   0.20129   0.20129   0.20937
 Alpha virt. eigenvalues --    0.20937   0.21995   0.21996   0.22689   0.22689
 Alpha virt. eigenvalues --    0.23036   0.25274   0.25382   0.25382   0.28712
 Alpha virt. eigenvalues --    0.28712   0.29734   0.30519   0.35017   0.35847
 Alpha virt. eigenvalues --    0.35848   0.43051   0.43052   0.47262   0.47265
 Alpha virt. eigenvalues --    0.48014   0.50498   0.50499   0.59448   0.60478
 Alpha virt. eigenvalues --    0.71315   0.71654   0.73081   0.73082   0.74857
 Alpha virt. eigenvalues --    0.74857   0.75934   0.77312   0.77313   0.79409
 Alpha virt. eigenvalues --    0.79622   0.79623   0.85093   0.85093   0.87434
 Alpha virt. eigenvalues --    0.88226   0.88228   0.90876   0.90876   0.91088
 Alpha virt. eigenvalues --    0.92227   0.92230   1.04616   1.07408   1.07408
 Alpha virt. eigenvalues --    1.10777   1.10899   1.10899   1.12637   1.19814
 Alpha virt. eigenvalues --    1.21390   1.24241   1.48286   1.48290   1.55562
 Alpha virt. eigenvalues --    1.55566   1.57489   1.73526   1.74942   1.74947
 Alpha virt. eigenvalues --    1.76839   1.82173   1.82174   1.84985   1.84991
 Alpha virt. eigenvalues --    1.98995   1.99203   1.99210   2.00192   2.01920
 Alpha virt. eigenvalues --    2.02309   2.02312   2.07099   2.07099   2.12938
 Alpha virt. eigenvalues --    2.20092   2.20096   2.29251   2.29253   2.30406
 Alpha virt. eigenvalues --    2.37183   2.37188   2.42406   2.42411   2.58396
 Alpha virt. eigenvalues --    2.64860   2.64868   2.73343   2.74822   2.78786
 Alpha virt. eigenvalues --    2.78789   2.85207   2.85210   2.85521   2.96699
 Alpha virt. eigenvalues --    2.96701   2.96799   2.97153   2.97155   3.07090
 Alpha virt. eigenvalues --    3.13802   3.22612   3.23056   3.23057   3.23172
 Alpha virt. eigenvalues --    3.23181   3.33689   3.33691   3.52272   3.54063
 Alpha virt. eigenvalues --    3.77160   3.77165   3.83988   3.89198   3.89204
 Alpha virt. eigenvalues --    3.90748   4.39748   4.39754   4.48028   4.48033
 Alpha virt. eigenvalues --    4.60520   5.21056  24.71201  25.11332  25.11335
 Alpha virt. eigenvalues --   25.23013  25.23017  25.30345
          Condensed to atoms (all electrons):
              1          2          3          4          5          6
     1  C    6.427067  -0.700335   0.862224  -0.905679   0.862048  -0.700605
     2  C   -0.700335   6.427074  -0.700606   0.862054  -0.905679   0.862229
     3  C    0.862224  -0.700606   6.427690  -0.700606   0.862224  -0.905926
     4  C   -0.905679   0.862054  -0.700606   6.427074  -0.700335   0.862229
     5  C    0.862048  -0.905679   0.862224  -0.700335   6.427067  -0.700605
     6  C   -0.700605   0.862229  -0.905926   0.862229  -0.700605   6.427694
     7  H    0.405617  -0.067026   0.014512  -0.006307   0.014516  -0.067034
     8  H   -0.067027   0.405618  -0.067035   0.014517  -0.006307   0.014512
     9  H    0.014503  -0.066985   0.405588  -0.066985   0.014503  -0.006308
    10  H   -0.006307   0.014517  -0.067035   0.405618  -0.067027   0.014512
    11  H    0.014516  -0.006307   0.014512  -0.067026   0.405617  -0.067034
    12  H   -0.066987   0.014504  -0.006308   0.014504  -0.066987   0.405590
              7          8          9         10         11         12
     1  C    0.405617  -0.067027   0.014503  -0.006307   0.014516  -0.066987
     2  C   -0.067026   0.405618  -0.066985   0.014517  -0.006307   0.014504
     3  C    0.014512  -0.067035   0.405588  -0.067035   0.014512  -0.006308
     4  C   -0.006307   0.014517  -0.066985   0.405618  -0.067026   0.014504
     5  C    0.014516  -0.006307   0.014503  -0.067027   0.405617  -0.066987
     6  C   -0.067034   0.014512  -0.006308   0.014512  -0.067034   0.405590
     7  H    0.570976  -0.002318   0.000054   0.000160   0.000056  -0.002319
     8  H   -0.002318   0.570976  -0.002319   0.000056   0.000160   0.000054
     9  H    0.000054  -0.002319   0.570942  -0.002319   0.000054   0.000160
    10  H    0.000160   0.000056  -0.002319   0.570976  -0.002318   0.000054
    11  H    0.000056   0.000160   0.000054  -0.002318   0.570976  -0.002319
    12  H   -0.002319   0.000054   0.000160   0.000054  -0.002319   0.570943
 Mulliken atomic charges:
              1
     1  C   -0.139035
     2  C   -0.139057
     3  C   -0.139233
     4  C   -0.139057
     5  C   -0.139035
     6  C   -0.139255
     7  H    0.139113
     8  H    0.139111
     9  H    0.139112
    10  H    0.139111
    11  H    0.139113
    12  H    0.139110
 Sum of Mulliken atomic charges =   0.00000
 Mulliken charges with hydrogens summed into heavy atoms:
              1
     1  C    0.000078
     2  C    0.000055
     3  C   -0.000121
     4  C    0.000055
     5  C    0.000078
     6  C   -0.000145
 Sum of Mulliken charges with hydrogens summed into heavy atoms =   0.00000
 Electronic spatial extent (au):  <R**2>=            457.7506
 Charge=              0.0000 electrons
 Dipole moment (field-independent basis, Debye):
    X=             -1.7653    Y=              0.0000    Z=              0.0000  Tot=              1.7653
 Quadrupole moment (field-independent basis, Debye-Ang):
   XX=            -39.6653   YY=            -34.3434   ZZ=            -34.3437
   XY=              0.0000   XZ=              0.0000   YZ=              0.0000
 Traceless Quadrupole moment (field-independent basis, Debye-Ang):
   XX=             -3.5479   YY=              1.7741   ZZ=              1.7738
   XY=              0.0000   XZ=              0.0000   YZ=              0.0000
 Octapole moment (field-independent basis, Debye-Ang**2):
  XXX=             -3.2530  YYY=              0.0000  ZZZ=              0.0000  XYY=             -7.6342
  XXY=              0.0000  XXZ=              0.0000  XZZ=             -7.6350  YZZ=              0.0000
  YYZ=              0.0000  XYZ=              0.0000
 Hexadecapole moment (field-independent basis, Debye-Ang**3):
 XXXX=            -55.3136 YYYY=           -294.5071 ZZZZ=           -294.4894 XXXY=              0.0001
 XXXZ=              0.0000 YYYX=              0.0000 YYYZ=              0.0000 ZZZX=              0.0000
 ZZZY=              0.0000 XXYY=            -63.4166 XXZZ=            -63.4129 YYZZ=            -98.1709
 XXYZ=              0.0000 YYXZ=              0.0000 ZZXY=              0.0000
 N-N= 2.036009674645D+02 E-N=-9.446594549458D+02  KE= 2.314390063659D+02
 Symmetry A'   KE= 1.509304955541D+02
 Symmetry A"   KE= 8.050851081174D+01
 No NMR shielding tensors so no spin-rotation constants.
 Leave Link  601 at Thu Jan  6 16:24:25 2022, MaxMem=  498073600 cpu:       1.9
 (Enter /apps/software//g09/l701.exe)
 Compute integral first derivatives.
 ... and contract with generalized density number  2.
 Leave Link  701 at Thu Jan  6 16:24:26 2022, MaxMem=  498073600 cpu:       1.5
 (Enter /apps/software//g09/l702.exe)
 L702 exits ... SP integral derivatives will be done elsewhere.
 Leave Link  702 at Thu Jan  6 16:24:27 2022, MaxMem=  498073600 cpu:       0.1
 (Enter /apps/software//g09/l703.exe)
 Compute integral first derivatives, UseDBF=F ICtDFT=           0.
 Integral derivatives from FoFDir, PRISM(SPDF).
 Calling FoFJK, ICntrl=      2127 FMM=F ISym2X=1 I1Cent= 0 IOpClX= 0 NMat=1 NMatS=1 NMatT=0.
 FoFCou: FMM=F IPFlag=           0 FMFlag=      100000 FMFlg1=         800
         NFxFlg=           0 DoJE=F BraDBF=F KetDBF=F FulRan=T
         Omega=  0.000000  0.000000  1.000000  0.000000  0.000000 ICntrl=    2127 IOpCl=  0
         NMat0=    1 NMatS0=    1 NMatT0=    0 NMatD0=    1 NMtDS0=    0 NMtDT0=    0
         I1Cent=           0 NGrid=           0.
 Petite list used in FoFCou.
 Leave Link  703 at Thu Jan  6 16:24:30 2022, MaxMem=  498073600 cpu:      19.3
 (Enter /apps/software//g09/l716.exe)
 Dipole        =-6.94506926D-01-9.67528043D-07-5.59552404D-14
 ***** Axes restored to original set *****
 -------------------------------------------------------------------
 Center     Atomic                   Forces (Hartrees/Bohr)
 Number     Number              X              Y              Z
 -------------------------------------------------------------------
      1        6           0.012614505    0.000978330    0.001656574
      2        6           0.012614787   -0.000978334    0.001656383
      3        6           0.012619115   -0.001953270    0.000000000
      4        6           0.012614787   -0.000978334   -0.001656383
      5        6           0.012614505    0.000978330   -0.001656574
      6        6           0.012618696    0.001954630    0.000000000
      7        1          -0.012617687   -0.003887117   -0.006714830
      8        1          -0.012617679    0.003887143   -0.006714847
      9        1          -0.012613155    0.007768141    0.000000000
     10        1          -0.012617679    0.003887143    0.006714847
     11        1          -0.012617687   -0.003887117    0.006714830
     12        1          -0.012612507   -0.007769546    0.000000000
 -------------------------------------------------------------------
 Cartesian Forces:  Max     0.012619115 RMS     0.007982492
 Leave Link  716 at Thu Jan  6 16:24:31 2022, MaxMem=  498073600 cpu:       0.2
 (Enter /apps/software//g09/l103.exe)

 GradGradGradGradGradGradGradGradGradGradGradGradGradGradGradGradGradGrad
 Berny optimization.
 Internal  Forces:  Max     0.013232711 RMS     0.006695412
 Search for a local minimum.
 Step number   1 out of a maximum of   64
 All quantities printed in internal units (Hartrees-Bohrs-Radians)
 RMS Force = .66954D-02 SwitMx=.10000D-02 MixMth= 1
 Mixed Optimization -- RFO/linear search
 Second derivative matrix not updated -- first step.
     Eigenvalues ---    0.02102   0.02102   0.02102   0.02519   0.02519
     Eigenvalues ---    0.02605   0.02605   0.02605   0.02730   0.13449
     Eigenvalues ---    0.14190   0.14191   0.15031   0.15031   0.15032
     Eigenvalues ---    0.22299   0.22299   0.22299   0.35272   0.35272
     Eigenvalues ---    0.35272   0.35272   0.35274   0.35274   0.41806
     Eigenvalues ---    0.41808   0.45783   0.45785   0.45786   0.45786
     Eigenvalues --- 1000.000001000.000001000.000001000.000001000.00000
     Eigenvalues --- 1000.000001000.000001000.000001000.000001000.00000
     Eigenvalues --- 1000.000001000.000001000.000001000.000001000.00000
     Eigenvalues --- 1000.000001000.000001000.000001000.000001000.00000
     Eigenvalues --- 1000.000001000.000001000.000001000.00000
 RFO step:  Lambda=-3.54897940D-02 EMin= 2.10174149D-02
 Linear search not attempted -- first point.
 Maximum step size (   0.300) exceeded in Quadratic search.
    -- Step size scaled by   0.401
 Iteration  1 RMS(Cart)=  0.04159476 RMS(Int)=  0.00216417
 Iteration  2 RMS(Cart)=  0.00193266 RMS(Int)=  0.00074747
 Iteration  3 RMS(Cart)=  0.00000042 RMS(Int)=  0.00074747
 ClnCor:  largest displacement from symmetrization is 3.07D-10 for atom    11.
 Variable       Old X    -DE/DX   Delta X   Delta X   Delta X     New X
                                 (Linear)    (Quad)   (Total)
    R1        2.64377   0.00582   0.00000   0.00473   0.00473   2.64851
    R2        2.64374   0.00583   0.00000   0.00475   0.00475   2.64848
    R3        2.05236   0.00170   0.00000   0.00176   0.00176   2.05411
    R4        2.64374   0.00583   0.00000   0.00475   0.00475   2.64848
    R5        2.05236   0.00170   0.00000   0.00176   0.00176   2.05411
    R6        2.64374   0.00583   0.00000   0.00475   0.00475   2.64848
    R7        2.05232   0.00171   0.00000   0.00177   0.00177   2.05409
    R8        2.64377   0.00582   0.00000   0.00473   0.00473   2.64851
    R9        2.05236   0.00170   0.00000   0.00176   0.00176   2.05411
   R10        2.64374   0.00583   0.00000   0.00475   0.00475   2.64848
   R11        2.05236   0.00170   0.00000   0.00176   0.00176   2.05411
   R12        2.05232   0.00171   0.00000   0.00177   0.00177   2.05409
    A1        2.09445  -0.00001   0.00000  -0.00002  -0.00002   2.09443
    A2        2.04099   0.00289   0.00000   0.01841   0.01685   2.05784
    A3        2.04117   0.00287   0.00000   0.01838   0.01682   2.05799
    A4        2.09445  -0.00001   0.00000  -0.00002  -0.00002   2.09443
    A5        2.04099   0.00289   0.00000   0.01841   0.01685   2.05784
    A6        2.04117   0.00287   0.00000   0.01838   0.01682   2.05799
    A7        2.09429   0.00002   0.00000   0.00003   0.00003   2.09432
    A8        2.04113   0.00287   0.00000   0.01838   0.01682   2.05795
    A9        2.04113   0.00287   0.00000   0.01838   0.01682   2.05795
   A10        2.09445  -0.00001   0.00000  -0.00002  -0.00002   2.09443
   A11        2.04117   0.00287   0.00000   0.01838   0.01682   2.05799
   A12        2.04099   0.00289   0.00000   0.01841   0.01685   2.05784
   A13        2.09445  -0.00001   0.00000  -0.00002  -0.00002   2.09443
   A14        2.04099   0.00289   0.00000   0.01841   0.01685   2.05784
   A15        2.04117   0.00287   0.00000   0.01838   0.01682   2.05799
   A16        2.09429   0.00002   0.00000   0.00003   0.00003   2.09432
   A17        2.04113   0.00287   0.00000   0.01838   0.01682   2.05795
   A18        2.04113   0.00287   0.00000   0.01838   0.01682   2.05795
    D1        0.00000   0.00000   0.00000   0.00000   0.00000   0.00000
    D2        2.64772   0.01322   0.00000   0.08453   0.08482   2.73254
    D3       -2.64772  -0.01322   0.00000  -0.08453  -0.08482  -2.73254
    D4        0.00000   0.00000   0.00000   0.00000   0.00000   0.00000
    D5       -0.00006   0.00000   0.00000   0.00002   0.00002  -0.00004
    D6       -2.64765  -0.01323   0.00000  -0.08455  -0.08483  -2.73249
    D7        2.64762   0.01323   0.00000   0.08457   0.08485   2.73246
    D8        0.00002   0.00000   0.00000   0.00000   0.00000   0.00002
    D9        0.00005   0.00000   0.00000  -0.00002  -0.00002   0.00004
   D10        2.64765   0.01323   0.00000   0.08455   0.08483   2.73248
   D11       -2.64762  -0.01323   0.00000  -0.08457  -0.08485  -2.73246
   D12       -0.00002   0.00000   0.00000   0.00000   0.00000  -0.00002
   D13       -0.00005   0.00000   0.00000   0.00002   0.00002  -0.00004
   D14        2.64762   0.01323   0.00000   0.08457   0.08485   2.73246
   D15       -2.64765  -0.01323   0.00000  -0.08455  -0.08483  -2.73248
   D16        0.00002   0.00000   0.00000   0.00000   0.00000   0.00002
   D17        0.00000   0.00000   0.00000   0.00000   0.00000   0.00000
   D18        2.64772   0.01322   0.00000   0.08453   0.08482   2.73254
   D19       -2.64772  -0.01322   0.00000  -0.08453  -0.08482  -2.73254
   D20        0.00000   0.00000   0.00000   0.00000   0.00000   0.00000
   D21        0.00006   0.00000   0.00000  -0.00002  -0.00002   0.00004
   D22        2.64765   0.01323   0.00000   0.08455   0.08483   2.73249
   D23       -2.64762  -0.01323   0.00000  -0.08457  -0.08485  -2.73246
   D24       -0.00002   0.00000   0.00000   0.00000   0.00000  -0.00002
         Item               Value     Threshold  Converged?
 Maximum Force            0.013233     0.000450     NO 
 RMS     Force            0.006695     0.000300     NO 
 Maximum Displacement     0.072671     0.001800     NO 
 RMS     Displacement     0.041049     0.001200     NO 
 Predicted change in Energy=-1.301842D-02
 GradGradGradGradGradGradGradGradGradGradGradGradGradGradGradGradGradGrad

 Leave Link  103 at Thu Jan  6 16:24:31 2022, MaxMem=  498073600 cpu:       0.1
 (Enter /apps/software//g09/l202.exe)
                          Input orientation:                          
 ---------------------------------------------------------------------
 Center     Atomic      Atomic             Coordinates (Angstroms)
 Number     Number       Type             X           Y           Z
 ---------------------------------------------------------------------
      1          6           0       -0.027112   -0.700765   -1.213722
      2          6           0       -0.027113    0.700764   -1.213722
      3          6           0       -0.027135    1.401568    0.000000
      4          6           0       -0.027113    0.700764    1.213722
      5          6           0       -0.027112   -0.700765    1.213722
      6          6           0       -0.027135   -1.401569    0.000000
      7          1           0        0.354976   -1.209491   -2.095058
      8          1           0        0.354975    1.209490   -2.095058
      9          1           0        0.354952    2.419178    0.000000
     10          1           0        0.354975    1.209490    2.095058
     11          1           0        0.354976   -1.209491    2.095058
     12          1           0        0.354952   -2.419177    0.000000
 ---------------------------------------------------------------------
                    Distance matrix (angstroms):
                    1          2          3          4          5
     1  C    0.000000
     2  C    1.401529   0.000000
     3  C    2.427535   1.401516   0.000000
     4  C    2.802993   2.427444   1.401516   0.000000
     5  C    2.427444   2.802993   2.427535   1.401529   0.000000
     6  C    1.401516   2.427535   2.803137   2.427535   1.401516
     7  H    1.086990   2.138181   3.369408   3.839673   3.369394
     8  H    2.138181   1.086990   2.138263   3.369395   3.839673
     9  H    3.369442   2.138233   1.086978   2.138233   3.369442
    10  H    3.839673   3.369395   2.138263   1.086990   2.138181
    11  H    3.369394   3.839673   3.369408   2.138181   1.086990
    12  H    2.138232   3.369440   3.839803   3.369440   2.138232
                    6          7          8          9         10
     6  C    0.000000
     7  H    2.138264   0.000000
     8  H    3.369408   2.418982   0.000000
     9  H    3.839804   4.190049   2.419217   0.000000
    10  H    3.369408   4.838238   4.190116   2.419217   0.000000
    11  H    2.138264   4.190116   4.838238   4.190049   2.418982
    12  H    1.086976   2.419217   4.190047   4.838355   4.190047
                   11         12
    11  H    0.000000
    12  H    2.419217   0.000000
 Stoichiometry    C6H6
 Framework group  CS[SG(C2H2),X(C4H4)]
 Deg. of freedom    17
 Full point group                 CS      NOp   2
 Largest Abelian subgroup         CS      NOp   2
 Largest concise Abelian subgroup CS      NOp   2
                         Standard orientation:                         
 ---------------------------------------------------------------------
 Center     Atomic      Atomic             Coordinates (Angstroms)
 Number     Number       Type             X           Y           Z
 ---------------------------------------------------------------------
      1          6           0        0.054576   -0.700764    1.213722
      2          6           0        0.054576    0.700764    1.213722
      3          6           0        0.054598    1.401569    0.000000
      4          6           0        0.054576    0.700764   -1.213722
      5          6           0        0.054576   -0.700764   -1.213722
      6          6           0        0.054600   -1.401569    0.000000
      7          1           0       -0.327511   -1.209491    2.095058
      8          1           0       -0.327512    1.209491    2.095058
      9          1           0       -0.327490    2.419178    0.000000
     10          1           0       -0.327512    1.209491   -2.095058
     11          1           0       -0.327511   -1.209491   -2.095058
     12          1           0       -0.327487   -2.419177    0.000000
 ---------------------------------------------------------------------
 Rotational constants (GHZ):      5.6644980      5.6640995      2.8582389
 Leave Link  202 at Thu Jan  6 16:24:31 2022, MaxMem=  498073600 cpu:       0.1
 (Enter /apps/software//g09/l301.exe)
 Standard basis: 6-311++G(d,p) (5D, 7F)
 Ernie: Thresh=  0.10000D-02 Tol=  0.10000D-05 Strict=F.
 There are   102 symmetry adapted basis functions of A'  symmetry.
 There are    72 symmetry adapted basis functions of A"  symmetry.
 Integral buffers will be    131072 words long.
 Raffenetti 1 integral format.
 Two-electron integral symmetry is turned on.
   174 basis functions,   270 primitive gaussians,   180 cartesian basis functions
    21 alpha electrons       21 beta electrons
       nuclear repulsion energy       203.0435573092 Hartrees.
 IExCor=    0 DFT=F Ex=HF Corr=None ExCW=0 ScaHFX=  1.000000
 ScaDFX=  1.000000  1.000000  1.000000  1.000000 ScalE2=  1.000000  1.000000
 IRadAn=      0 IRanWt=     -1 IRanGd=            0 ICorTp=0
 NAtoms=   12 NActive=   12 NUniq=    8 SFac= 1.69D+00 NAtFMM=   80 NAOKFM=F Big=F
 Leave Link  301 at Thu Jan  6 16:24:31 2022, MaxMem=  498073600 cpu:       0.3
 (Enter /apps/software//g09/l302.exe)
 NPDir=0 NMtPBC=     1 NCelOv=     1 NCel=       1 NClECP=     1 NCelD=      1
         NCelK=      1 NCelE2=     1 NClLst=     1 CellRange=     0.0.
 One-electron integrals computed using PRISM.
 One-electron integral symmetry used in STVInt
 NBasis=   174 RedAO= T  NBF=   102    72
 NBsUse=   174 1.00D-06 NBFU=   102    72
 Leave Link  302 at Thu Jan  6 16:24:31 2022, MaxMem=  498073600 cpu:       1.2
 (Enter /apps/software//g09/l303.exe)
 DipDrv:  MaxL=1.
 Leave Link  303 at Thu Jan  6 16:24:31 2022, MaxMem=  498073600 cpu:       0.1
 (Enter /apps/software//g09/l401.exe)
 Initial guess read from the read-write file.
 B after Tr=     0.000000    0.000000    0.000000
         Rot=    1.000000    0.000000    0.000000    0.000000 Ang=   0.00 deg.
 Guess basis will be translated and rotated to current coordinates.
 Initial guess orbital symmetries:
       Occupied  (A') (A') (A") (A') (A") (A') (A') (A') (A") (A')
                 (A") (A') (A') (A") (A') (A") (A') (A') (A") (A')
                 (A")
       Virtual   (A') (A') (A") (A') (A") (A') (A') (A") (A') (A')
                 (A") (A') (A") (A") (A') (A') (A') (A") (A') (A')
                 (A") (A') (A") (A') (A") (A') (A') (A') (A") (A')
                 (A") (A') (A") (A') (A') (A") (A') (A") (A") (A')
                 (A') (A') (A") (A') (A") (A') (A') (A") (A') (A")
                 (A') (A") (A') (A") (A') (A") (A') (A') (A") (A')
                 (A") (A') (A") (A') (A') (A") (A') (A') (A") (A')
                 (A') (A") (A') (A") (A') (A") (A') (A') (A") (A')
                 (A") (A') (A") (A') (A") (A') (A') (A") (A') (A")
                 (A') (A") (A') (A') (A") (A') (A") (A') (A") (A")
                 (A") (A') (A") (A') (A') (A') (A") (A") (A') (A')
                 (A') (A") (A') (A") (A') (A") (A") (A') (A') (A")
                 (A') (A') (A') (A") (A') (A') (A") (A") (A') (A")
                 (A') (A") (A') (A") (A') (A') (A") (A') (A") (A')
                 (A') (A") (A') (A") (A') (A') (A") (A') (A') (A")
                 (A") (A') (A')
 The electronic state of the initial guess is 1-A'.
 Generating alternative initial guess.
 Harris functional with IExCor=  205 diagonalized for initial guess.
 ExpMin= 3.60D-02 ExpMax= 4.56D+03 ExpMxC= 6.82D+02 IAcc=3 IRadAn=         0 AccDes= 0.00D+00
 HarFok:  IExCor=  205 AccDes= 0.00D+00 IRadAn=         0 IDoV= 1
 ScaDFX=  1.000000  1.000000  1.000000  1.000000
 FoFCou: FMM=F IPFlag=           0 FMFlag=      100000 FMFlg1=           0
         NFxFlg=           0 DoJE=T BraDBF=F KetDBF=T FulRan=T
         Omega=  0.000000  0.000000  1.000000  0.000000  0.000000 ICntrl=     500 IOpCl=  0
         NMat0=    1 NMatS0=    1 NMatT0=    0 NMatD0=    1 NMtDS0=    0 NMtDT0=    0
         I1Cent=           4 NGrid=           0.
 Petite list used in FoFCou.
 Harris En= -231.122531850306    
 Leave Link  401 at Thu Jan  6 16:24:32 2022, MaxMem=  498073600 cpu:       4.2
 (Enter /apps/software//g09/l502.exe)
 Closed shell SCF:
 Requested convergence on RMS density matrix=1.00D-08 within 128 cycles.
 Requested convergence on MAX density matrix=1.00D-06.
 Requested convergence on             energy=1.00D-06.
 No special actions if energy rises.
 Using DIIS extrapolation, IDIIS=  1040.
 Integral symmetry usage will be decided dynamically.
 Keep R1 ints in memory in canonical form, NReq=135772999.
 IEnd=      118010 IEndB=      118010 NGot=   498073600 MDV=   365314588
 LenX=   365314588 LenY=   365281747
 Symmetry not used in FoFDir.
 MinBra= 0 MaxBra= 2 Meth= 1.
 IRaf=       0 NMat=   1 IRICut=       1 DoRegI=T DoRafI=F ISym2E= 0 JSym2E=0.

 Cycle   1  Pass 1  IDiag  1:
 E= -230.719885115650    
 DIIS: error= 4.19D-03 at cycle   1 NSaved=   1.
 NSaved= 1 IEnMin= 1 EnMin= -230.719885115650     IErMin= 1 ErrMin= 4.19D-03
 ErrMax= 4.19D-03 EMaxC= 1.00D-01 BMatC= 1.85D-03 BMatP= 1.85D-03
 IDIUse=3 WtCom= 9.58D-01 WtEn= 4.19D-02
 Coeff-Com:  0.100D+01
 Coeff-En:   0.100D+01
 Coeff:      0.100D+01
 Gap=     0.380 Goal=   None    Shift=    0.000
 GapD=    0.380 DampG=1.000 DampE=1.000 DampFc=1.0000 IDamp=-1.
 RMSDP=2.54D-03 MaxDP=6.75D-02              OVMax= 1.30D-02

 Cycle   2  Pass 1  IDiag  1:
 E= -230.722805871445     Delta-E=       -0.002920755795 Rises=F Damp=F
 DIIS: error= 1.56D-03 at cycle   2 NSaved=   2.
 NSaved= 2 IEnMin= 2 EnMin= -230.722805871445     IErMin= 2 ErrMin= 1.56D-03
 ErrMax= 1.56D-03 EMaxC= 1.00D-01 BMatC= 1.50D-04 BMatP= 1.85D-03
 IDIUse=3 WtCom= 9.84D-01 WtEn= 1.56D-02
 Coeff-Com: -0.240D+00 0.124D+01
 Coeff-En:   0.000D+00 0.100D+01
 Coeff:     -0.236D+00 0.124D+01
 Gap=     0.379 Goal=   None    Shift=    0.000
 RMSDP=8.35D-04 MaxDP=2.17D-02 DE=-2.92D-03 OVMax= 8.64D-03

 Cycle   3  Pass 1  IDiag  1:
 E= -230.723286182853     Delta-E=       -0.000480311408 Rises=F Damp=F
 DIIS: error= 5.07D-04 at cycle   3 NSaved=   3.
 NSaved= 3 IEnMin= 3 EnMin= -230.723286182853     IErMin= 3 ErrMin= 5.07D-04
 ErrMax= 5.07D-04 EMaxC= 1.00D-01 BMatC= 1.57D-05 BMatP= 1.50D-04
 IDIUse=3 WtCom= 9.95D-01 WtEn= 5.07D-03
 Coeff-Com:  0.129D-01-0.313D+00 0.130D+01
 Coeff-En:   0.000D+00 0.000D+00 0.100D+01
 Coeff:      0.128D-01-0.312D+00 0.130D+01
 Gap=     0.379 Goal=   None    Shift=    0.000
 RMSDP=4.90D-04 MaxDP=1.25D-02 DE=-4.80D-04 OVMax= 3.95D-03

 Cycle   4  Pass 1  IDiag  1:
 E= -230.723348788721     Delta-E=       -0.000062605868 Rises=F Damp=F
 DIIS: error= 2.25D-04 at cycle   4 NSaved=   4.
 NSaved= 4 IEnMin= 4 EnMin= -230.723348788721     IErMin= 4 ErrMin= 2.25D-04
 ErrMax= 2.25D-04 EMaxC= 1.00D-01 BMatC= 1.50D-06 BMatP= 1.57D-05
 IDIUse=3 WtCom= 9.98D-01 WtEn= 2.25D-03
 Coeff-Com:  0.307D-01-0.185D+00 0.134D+00 0.102D+01
 Coeff-En:   0.000D+00 0.000D+00 0.000D+00 0.100D+01
 Coeff:      0.307D-01-0.184D+00 0.134D+00 0.102D+01
 Gap=     0.379 Goal=   None    Shift=    0.000
 RMSDP=1.11D-04 MaxDP=2.94D-03 DE=-6.26D-05 OVMax= 1.32D-03

 Cycle   5  Pass 1  IDiag  1:
 E= -230.723353724609     Delta-E=       -0.000004935888 Rises=F Damp=F
 DIIS: error= 2.91D-05 at cycle   5 NSaved=   5.
 NSaved= 5 IEnMin= 5 EnMin= -230.723353724609     IErMin= 5 ErrMin= 2.91D-05
 ErrMax= 2.91D-05 EMaxC= 1.00D-01 BMatC= 4.62D-08 BMatP= 1.50D-06
 IDIUse=1 WtCom= 1.00D+00 WtEn= 0.00D+00
 Coeff-Com: -0.829D-02 0.600D-01-0.991D-01-0.228D+00 0.128D+01
 Coeff:     -0.829D-02 0.600D-01-0.991D-01-0.228D+00 0.128D+01
 Gap=     0.379 Goal=   None    Shift=    0.000
 RMSDP=3.21D-05 MaxDP=9.02D-04 DE=-4.94D-06 OVMax= 2.41D-04

 Cycle   6  Pass 1  IDiag  1:
 E= -230.723353875023     Delta-E=       -0.000000150414 Rises=F Damp=F
 DIIS: error= 3.58D-06 at cycle   6 NSaved=   6.
 NSaved= 6 IEnMin= 6 EnMin= -230.723353875023     IErMin= 6 ErrMin= 3.58D-06
 ErrMax= 3.58D-06 EMaxC= 1.00D-01 BMatC= 2.21D-09 BMatP= 4.62D-08
 IDIUse=1 WtCom= 1.00D+00 WtEn= 0.00D+00
 Coeff-Com: -0.258D-02 0.177D-01-0.238D-01-0.764D-01 0.256D+00 0.829D+00
 Coeff:     -0.258D-02 0.177D-01-0.238D-01-0.764D-01 0.256D+00 0.829D+00
 Gap=     0.379 Goal=   None    Shift=    0.000
 RMSDP=7.48D-07 MaxDP=1.60D-05 DE=-1.50D-07 OVMax= 1.91D-05

 Cycle   7  Pass 1  IDiag  1:
 E= -230.723353878397     Delta-E=       -0.000000003373 Rises=F Damp=F
 DIIS: error= 9.19D-07 at cycle   7 NSaved=   7.
 NSaved= 7 IEnMin= 7 EnMin= -230.723353878397     IErMin= 7 ErrMin= 9.19D-07
 ErrMax= 9.19D-07 EMaxC= 1.00D-01 BMatC= 1.20D-10 BMatP= 2.21D-09
 IDIUse=1 WtCom= 1.00D+00 WtEn= 0.00D+00
 Coeff-Com:  0.613D-03-0.457D-02 0.796D-02 0.165D-01-0.105D+00 0.126D-01
 Coeff-Com:  0.107D+01
 Coeff:      0.613D-03-0.457D-02 0.796D-02 0.165D-01-0.105D+00 0.126D-01
 Coeff:      0.107D+01
 Gap=     0.379 Goal=   None    Shift=    0.000
 RMSDP=1.44D-06 MaxDP=3.81D-05 DE=-3.37D-09 OVMax= 6.44D-06

 Cycle   8  Pass 1  IDiag  1:
 E= -230.723353878694     Delta-E=       -0.000000000298 Rises=F Damp=F
 DIIS: error= 1.53D-07 at cycle   8 NSaved=   8.
 NSaved= 8 IEnMin= 8 EnMin= -230.723353878694     IErMin= 8 ErrMin= 1.53D-07
 ErrMax= 1.53D-07 EMaxC= 1.00D-01 BMatC= 3.14D-12 BMatP= 1.20D-10
 IDIUse=1 WtCom= 1.00D+00 WtEn= 0.00D+00
 Coeff-Com: -0.122D-04 0.125D-03-0.345D-03-0.319D-03 0.686D-02-0.234D-01
 Coeff-Com: -0.145D+00 0.116D+01
 Coeff:     -0.122D-04 0.125D-03-0.345D-03-0.319D-03 0.686D-02-0.234D-01
 Coeff:     -0.145D+00 0.116D+01
 Gap=     0.379 Goal=   None    Shift=    0.000
 RMSDP=5.65D-07 MaxDP=1.57D-05 DE=-2.98D-10 OVMax= 1.60D-06

 Cycle   9  Pass 1  IDiag  1:
 E= -230.723353878707     Delta-E=       -0.000000000013 Rises=F Damp=F
 DIIS: error= 4.86D-08 at cycle   9 NSaved=   9.
 NSaved= 9 IEnMin= 9 EnMin= -230.723353878707     IErMin= 9 ErrMin= 4.86D-08
 ErrMax= 4.86D-08 EMaxC= 1.00D-01 BMatC= 2.00D-13 BMatP= 3.14D-12
 IDIUse=1 WtCom= 1.00D+00 WtEn= 0.00D+00
 Coeff-Com: -0.348D-04 0.250D-03-0.384D-03-0.101D-02 0.515D-02 0.274D-02
 Coeff-Com: -0.328D-01-0.211D+00 0.124D+01
 Coeff:     -0.348D-04 0.250D-03-0.384D-03-0.101D-02 0.515D-02 0.274D-02
 Coeff:     -0.328D-01-0.211D+00 0.124D+01
 Gap=     0.379 Goal=   None    Shift=    0.000
 RMSDP=1.35D-07 MaxDP=3.82D-06 DE=-1.32D-11 OVMax= 4.86D-07

 Cycle  10  Pass 1  IDiag  1:
 E= -230.723353878709     Delta-E=       -0.000000000001 Rises=F Damp=F
 DIIS: error= 1.08D-08 at cycle  10 NSaved=  10.
 NSaved=10 IEnMin=10 EnMin= -230.723353878709     IErMin=10 ErrMin= 1.08D-08
 ErrMax= 1.08D-08 EMaxC= 1.00D-01 BMatC= 6.77D-15 BMatP= 2.00D-13
 IDIUse=1 WtCom= 1.00D+00 WtEn= 0.00D+00
 Coeff-Com:  0.116D-04-0.843D-04 0.139D-03 0.313D-03-0.185D-02 0.506D-04
 Coeff-Com:  0.163D-01 0.200D-01-0.364D+00 0.133D+01
 Coeff:      0.116D-04-0.843D-04 0.139D-03 0.313D-03-0.185D-02 0.506D-04
 Coeff:      0.163D-01 0.200D-01-0.364D+00 0.133D+01
 Gap=     0.379 Goal=   None    Shift=    0.000
 RMSDP=6.25D-09 MaxDP=1.71D-07 DE=-1.48D-12 OVMax= 9.36D-08

 SCF Done:  E(RHF) =  -230.723353879     A.U. after   10 cycles
             Convg  =    0.6249D-08             -V/T =  2.0016
 KE= 2.303453113133D+02 PE=-9.426802915491D+02 EE= 2.785680690478D+02
 Leave Link  502 at Thu Jan  6 16:24:40 2022, MaxMem=  498073600 cpu:      46.7
 (Enter /apps/software//g09/l801.exe)
 ExpMin= 3.60D-02 ExpMax= 4.56D+03 ExpMxC= 6.82D+02 IAcc=3 IRadAn=         5 AccDes= 0.00D+00
 HarFok:  IExCor=  205 AccDes= 0.00D+00 IRadAn=         5 IDoV=-2
 ScaDFX=  1.000000  1.000000  1.000000  1.000000
 Largest valence mixing into a core orbital is  1.53D-04
 Largest core mixing into a valence orbital is  3.99D-05
 Range of M.O.s used for correlation:     7   174
 NBasis=   174 NAE=    21 NBE=    21 NFC=     6 NFV=     0
 NROrb=    168 NOA=    15 NOB=    15 NVA=   153 NVB=   153

 **** Warning!!: The largest alpha MO coefficient is  0.17469492D+03

 Leave Link  801 at Thu Jan  6 16:24:40 2022, MaxMem=  498073600 cpu:       1.4
 (Enter /apps/software//g09/l906.exe)
 Frozen-core derivative calculation, NFC=   6 NFV=   0.
 FulOut=F Deriv=T AODrv=T NAtomX=    12
   MMem=         295  MDisk=          15 MDiskD=          15
  W3Min=      657720 MinDsk=     1009670 NBas6D=         180
 NBas2D=       16542    NTT=       16290    LW2=     2040000
    MDV=   497688341 MDiskM=       38247 NBas2p=        9320
 Fully direct method using O(ONN) memory.
 IMap=   1   2   3   4   5   6   7   8   9  10  11  12  13  14  15  16  17  18  19  20
 IMap=  21
 JobTyp=1 Pass  1:  I=   7 to  21 NPSUse=  6 ParTrn=T ParDer=T DoDerP=T.
 Spin components of T(2) and E(2):
     alpha-alpha T2 =       0.4319317621D-01 E2=     -0.1086676154D+00
     alpha-beta  T2 =       0.2279014433D+00 E2=     -0.6175909959D+00
     beta-beta   T2 =       0.4319317621D-01 E2=     -0.1086676154D+00
 The integrals were generated   1 times.
 ANorm=    0.1146423916D+01
 E2 =    -0.8349262268D+00 EUMP2 =    -0.23155828010547D+03
 Leave Link  906 at Thu Jan  6 16:24:51 2022, MaxMem=  498073600 cpu:      65.8
 (Enter /apps/software//g09/l1002.exe)
 Minotr:  Closed shell wavefunction.
          Computing MP2/KS-MP2 derivatives.
          Using Z-Vector for PSCF gradient.
          Skipping F1 and S1 gradient terms here.
          IDoAtm=111111111111
          Frozen-core window.
          Direct CPHF calculation.
          Differentiating once with respect to electric field.
                with respect to dipole field.
          Differentiating once with respect to nuclear coordinates.
          Using symmetry in CPHF.
          Requested convergence is 1.0D-10 RMS, and 1.0D-09 maximum.
          NewPWx=F KeepS1=T KeepF1=T KeepIn=T MapXYZ=F SortEE=F KeepMc=T.
          MDV=     498073476 using IRadAn=       0.
          Keep R1 ints in memory in canonical form, NReq=133511850.
 Symmetry not used in FoFDir.
 MinBra= 0 MaxBra= 2 Meth= 1.
 IRaf=       0 NMat=   1 IRICut=       1 DoRegI=T DoRafI=F ISym2E= 0 JSym2E=0.
          Solving linear equations separately, MaxMat=       0.
          There are     1 degrees of freedom in the 1st order CPHF.  IDoFFX=0.
 LinEq1:  Iter=  0 NonCon=     1 RMS=3.47D-03 Max=5.88D-02
 AX will form     1 AO Fock derivatives at one time.
 LinEq1:  Iter=  1 NonCon=     1 RMS=8.44D-04 Max=1.47D-02
 LinEq1:  Iter=  2 NonCon=     1 RMS=2.42D-04 Max=5.35D-03
 LinEq1:  Iter=  3 NonCon=     1 RMS=5.30D-05 Max=7.39D-04
 LinEq1:  Iter=  4 NonCon=     1 RMS=9.41D-06 Max=1.28D-04
 LinEq1:  Iter=  5 NonCon=     1 RMS=1.97D-06 Max=3.34D-05
 LinEq1:  Iter=  6 NonCon=     1 RMS=5.73D-07 Max=8.35D-06
 LinEq1:  Iter=  7 NonCon=     1 RMS=8.65D-08 Max=1.36D-06
 LinEq1:  Iter=  8 NonCon=     1 RMS=8.39D-09 Max=1.40D-07
 LinEq1:  Iter=  9 NonCon=     1 RMS=9.24D-10 Max=1.40D-08
 LinEq1:  Iter= 10 NonCon=     1 RMS=2.74D-10 Max=5.05D-09
 LinEq1:  Iter= 11 NonCon=     1 RMS=8.39D-11 Max=1.12D-09
 LinEq1:  Iter= 12 NonCon=     0 RMS=1.37D-11 Max=2.81D-10
 Linear equations converged to 1.000D-10 1.000D-09 after    12 iterations.
 End of Minotr Frequency-dependent properties file   721 does not exist.
 End of Minotr Frequency-dependent properties file   722 does not exist.
 Leave Link 1002 at Thu Jan  6 16:24:57 2022, MaxMem=  498073600 cpu:      36.5
 (Enter /apps/software//g09/l701.exe)
 Compute integral first derivatives.
 ... and contract with generalized density number  2.
 Leave Link  701 at Thu Jan  6 16:24:57 2022, MaxMem=  498073600 cpu:       1.6
 (Enter /apps/software//g09/l702.exe)
 L702 exits ... SP integral derivatives will be done elsewhere.
 Leave Link  702 at Thu Jan  6 16:24:58 2022, MaxMem=  498073600 cpu:       0.1
 (Enter /apps/software//g09/l703.exe)
 Compute integral first derivatives, UseDBF=F ICtDFT=           0.
 Integral derivatives from FoFDir, PRISM(SPDF).
 Calling FoFJK, ICntrl=      2127 FMM=F ISym2X=1 I1Cent= 0 IOpClX= 0 NMat=1 NMatS=1 NMatT=0.
 FoFCou: FMM=F IPFlag=           0 FMFlag=      100000 FMFlg1=         800
         NFxFlg=           0 DoJE=F BraDBF=F KetDBF=F FulRan=T
         Omega=  0.000000  0.000000  1.000000  0.000000  0.000000 ICntrl=    2127 IOpCl=  0
         NMat0=    1 NMatS0=    1 NMatT0=    0 NMatD0=    1 NMtDS0=    0 NMtDT0=    0
         I1Cent=           0 NGrid=           0.
 Petite list used in FoFCou.
 Leave Link  703 at Thu Jan  6 16:25:01 2022, MaxMem=  498073600 cpu:      19.2
 (Enter /apps/software//g09/l716.exe)
 Dipole        =-5.90892784D-01-6.21692204D-07-2.12274642D-13
 ***** Axes restored to original set *****
 -------------------------------------------------------------------
 Center     Atomic                   Forces (Hartrees/Bohr)
 Number     Number              X              Y              Z
 -------------------------------------------------------------------
      1        6           0.010963314    0.001461120    0.002506392
      2        6           0.010963667   -0.001460992    0.002506827
      3        6           0.010967731   -0.002922247    0.000000000
      4        6           0.010963667   -0.001460992   -0.002506827
      5        6           0.010963314    0.001461119   -0.002506391
      6        6           0.010967623    0.002922862    0.000000000
      7        1          -0.010965714   -0.002415064   -0.004168437
      8        1          -0.010965711    0.002415064   -0.004168408
      9        1          -0.010963407    0.004824155    0.000000000
     10        1          -0.010965711    0.002415064    0.004168408
     11        1          -0.010965714   -0.002415064    0.004168437
     12        1          -0.010963060   -0.004825025    0.000000000
 -------------------------------------------------------------------
 Cartesian Forces:  Max     0.010967731 RMS     0.006734829
 Leave Link  716 at Thu Jan  6 16:25:01 2022, MaxMem=  498073600 cpu:       0.4
 (Enter /apps/software//g09/l103.exe)

 GradGradGradGradGradGradGradGradGradGradGradGradGradGradGradGradGradGrad
 Berny optimization.
 Using GEDIIS/GDIIS optimizer.
 Internal  Forces:  Max     0.010732566 RMS     0.005183014
 Search for a local minimum.
 Step number   2 out of a maximum of   64
 All quantities printed in internal units (Hartrees-Bohrs-Radians)
 RMS Force = .51830D-02 SwitMx=.10000D-02 MixMth= 1
 Mixed Optimization -- RFO/linear search
 Update second derivatives using D2CorX and points    1    2
 DE= -1.28D-02 DEPred=-1.30D-02 R= 9.83D-01
 SS=  1.41D+00  RLast= 3.00D-01 DXNew= 5.0454D-01 8.9955D-01
 Trust test= 9.83D-01 RLast= 3.00D-01 DXMaxT set to 5.05D-01
 Use linear search instead of GDIIS.
 Linear search step of   0.600 exceeds DXMaxT=   0.505 but not scaled.
 Quartic linear search produced a step of  2.00000.
 Iteration  1 RMS(Cart)=  0.07982644 RMS(Int)=  0.00906154
 Iteration  2 RMS(Cart)=  0.00764824 RMS(Int)=  0.00451638
 Iteration  3 RMS(Cart)=  0.00000961 RMS(Int)=  0.00451637
 Iteration  4 RMS(Cart)=  0.00000004 RMS(Int)=  0.00451637
 ClnCor:  largest displacement from symmetrization is 2.11D-10 for atom    11.
 Variable       Old X    -DE/DX   Delta X   Delta X   Delta X     New X
                                 (Linear)    (Quad)   (Total)
    R1        2.64851   0.00191   0.00946   0.00000   0.00946   2.65797
    R2        2.64848   0.00191   0.00949   0.00000   0.00949   2.65797
    R3        2.05411   0.00066   0.00351   0.00000   0.00351   2.05763
    R4        2.64848   0.00191   0.00949   0.00000   0.00949   2.65797
    R5        2.05411   0.00066   0.00351   0.00000   0.00351   2.05763
    R6        2.64848   0.00191   0.00949   0.00000   0.00949   2.65797
    R7        2.05409   0.00066   0.00353   0.00000   0.00353   2.05762
    R8        2.64851   0.00191   0.00946   0.00000   0.00946   2.65797
    R9        2.05411   0.00066   0.00351   0.00000   0.00351   2.05763
   R10        2.64848   0.00191   0.00949   0.00000   0.00949   2.65797
   R11        2.05411   0.00066   0.00351   0.00000   0.00351   2.05763
   R12        2.05409   0.00066   0.00354   0.00000   0.00354   2.05763
    A1        2.09443  -0.00001  -0.00003   0.00000  -0.00003   2.09440
    A2        2.05784   0.00193   0.03371   0.00000   0.02418   2.08202
    A3        2.05799   0.00192   0.03363   0.00000   0.02410   2.08209
    A4        2.09443  -0.00001  -0.00003   0.00000  -0.00003   2.09440
    A5        2.05784   0.00193   0.03371   0.00000   0.02418   2.08202
    A6        2.05799   0.00192   0.03363   0.00000   0.02410   2.08209
    A7        2.09432   0.00001   0.00006   0.00000   0.00006   2.09438
    A8        2.05795   0.00192   0.03364   0.00000   0.02411   2.08206
    A9        2.05795   0.00192   0.03364   0.00000   0.02411   2.08206
   A10        2.09443  -0.00001  -0.00003   0.00000  -0.00003   2.09440
   A11        2.05799   0.00192   0.03363   0.00000   0.02410   2.08209
   A12        2.05784   0.00193   0.03371   0.00000   0.02418   2.08202
   A13        2.09443  -0.00001  -0.00003   0.00000  -0.00003   2.09440
   A14        2.05784   0.00193   0.03371   0.00000   0.02418   2.08202
   A15        2.05799   0.00192   0.03363   0.00000   0.02410   2.08209
   A16        2.09432   0.00001   0.00006   0.00000   0.00006   2.09438
   A17        2.05795   0.00192   0.03364   0.00000   0.02411   2.08206
   A18        2.05795   0.00192   0.03364   0.00000   0.02411   2.08206
    D1        0.00000   0.00000   0.00000   0.00000   0.00000   0.00000
    D2        2.73254   0.01073   0.16963   0.00000   0.17062   2.90316
    D3       -2.73254  -0.01073  -0.16963   0.00000  -0.17062  -2.90316
    D4        0.00000   0.00000   0.00000   0.00000   0.00000   0.00000
    D5       -0.00004   0.00000   0.00003   0.00000   0.00003   0.00000
    D6       -2.73249  -0.01073  -0.16966   0.00000  -0.17065  -2.90314
    D7        2.73246   0.01073   0.16970   0.00000   0.17068   2.90315
    D8        0.00002   0.00000   0.00000   0.00000   0.00000   0.00001
    D9        0.00004   0.00000  -0.00003   0.00000  -0.00003   0.00000
   D10        2.73248   0.01073   0.16966   0.00000   0.17065   2.90313
   D11       -2.73246  -0.01073  -0.16970   0.00000  -0.17068  -2.90315
   D12       -0.00002   0.00000   0.00000   0.00000   0.00000  -0.00001
   D13       -0.00004   0.00000   0.00003   0.00000   0.00003   0.00000
   D14        2.73246   0.01073   0.16970   0.00000   0.17068   2.90315
   D15       -2.73248  -0.01073  -0.16966   0.00000  -0.17065  -2.90313
   D16        0.00002   0.00000   0.00000   0.00000   0.00000   0.00001
   D17        0.00000   0.00000   0.00000   0.00000   0.00000   0.00000
   D18        2.73254   0.01073   0.16963   0.00000   0.17062   2.90316
   D19       -2.73254  -0.01073  -0.16963   0.00000  -0.17062  -2.90316
   D20        0.00000   0.00000   0.00000   0.00000   0.00000   0.00000
   D21        0.00004   0.00000  -0.00003   0.00000  -0.00003   0.00000
   D22        2.73249   0.01073   0.16966   0.00000   0.17065   2.90314
   D23       -2.73246  -0.01073  -0.16970   0.00000  -0.17068  -2.90315
   D24       -0.00002   0.00000   0.00000   0.00000   0.00000  -0.00001
         Item               Value     Threshold  Converged?
 Maximum Force            0.010733     0.000450     NO 
 RMS     Force            0.005183     0.000300     NO 
 Maximum Displacement     0.149121     0.001800     NO 
 RMS     Displacement     0.077847     0.001200     NO 
 Predicted change in Energy=-1.702325D-02
 GradGradGradGradGradGradGradGradGradGradGradGradGradGradGradGradGradGrad

 Leave Link  103 at Thu Jan  6 16:25:01 2022, MaxMem=  498073600 cpu:       0.2
 (Enter /apps/software//g09/l202.exe)
                          Input orientation:                          
 ---------------------------------------------------------------------
 Center     Atomic      Atomic             Coordinates (Angstroms)
 Number     Number       Type             X           Y           Z
 ---------------------------------------------------------------------
      1          6           0        0.051779   -0.703268   -1.218093
      2          6           0        0.051778    0.703268   -1.218093
      3          6           0        0.051776    1.406547    0.000000
      4          6           0        0.051778    0.703268    1.218093
      5          6           0        0.051779   -0.703268    1.218093
      6          6           0        0.051776   -1.406547    0.000000
      7          1           0        0.276066   -1.235979   -2.140864
      8          1           0        0.276065    1.235979   -2.140864
      9          1           0        0.276078    2.472041    0.000000
     10          1           0        0.276065    1.235979    2.140864
     11          1           0        0.276066   -1.235979    2.140864
     12          1           0        0.276078   -2.472042    0.000000
 ---------------------------------------------------------------------
                    Distance matrix (angstroms):
                    1          2          3          4          5
     1  C    0.000000
     2  C    1.406536   0.000000
     3  C    2.436200   1.406539   0.000000
     4  C    2.813067   2.436186   1.406539   0.000000
     5  C    2.436186   2.813067   2.436200   1.406536   0.000000
     6  C    1.406539   2.436200   2.813094   2.436200   1.406539
     7  H    1.088849   2.159280   3.408306   3.885045   3.408324
     8  H    2.159280   1.088849   2.159328   3.408324   3.885045
     9  H    3.408321   2.159310   1.088848   2.159310   3.408321
    10  H    3.885045   3.408324   2.159328   1.088849   2.159280
    11  H    3.408324   3.885045   3.408306   2.159280   1.088849
    12  H    2.159310   3.408321   3.885069   3.408321   2.159310
                    6          7          8          9         10
     6  C    0.000000
     7  H    2.159328   0.000000
     8  H    3.408306   2.471958   0.000000
     9  H    3.885069   4.281672   2.472074   0.000000
    10  H    3.408306   4.944064   4.281727   2.472074   0.000000
    11  H    2.159328   4.281727   4.944064   4.281672   2.471958
    12  H    1.088848   2.472074   4.281672   4.944083   4.281672
                   11         12
    11  H    0.000000
    12  H    2.472074   0.000000
 Stoichiometry    C6H6
 Framework group  CS[SG(C2H2),X(C4H4)]
[...]
   D22        3.14062   0.00002   0.00025   0.00069   0.00094   3.14156
   D23       -3.14062  -0.00002  -0.00025  -0.00068  -0.00093  -3.14156
   D24        0.00000   0.00000   0.00000   0.00000   0.00000   0.00000
         Item               Value     Threshold  Converged?
 Maximum Force            0.000055     0.000450     YES
 RMS     Force            0.000022     0.000300     YES
 Maximum Displacement     0.000837     0.001800     YES
 RMS     Displacement     0.000397     0.001200     YES
 Predicted change in Energy=-1.522394D-07
 Optimization completed.
    -- Stationary point found.
                           ----------------------------
                           !   Optimized Parameters   !
                           ! (Angstroms and Degrees)  !
 --------------------------                            --------------------------
 ! Name  Definition              Value          Derivative Info.                !
 --------------------------------------------------------------------------------
 ! R1    R(1,2)                  1.4003         -DE/DX =   -0.0001              !
 ! R2    R(1,6)                  1.4003         -DE/DX =   -0.0001              !
 ! R3    R(1,7)                  1.0868         -DE/DX =    0.0                 !
 ! R4    R(2,3)                  1.4003         -DE/DX =   -0.0001              !
 ! R5    R(2,8)                  1.0868         -DE/DX =    0.0                 !
 ! R6    R(3,4)                  1.4003         -DE/DX =   -0.0001              !
 ! R7    R(3,9)                  1.0868         -DE/DX =    0.0                 !
 ! R8    R(4,5)                  1.4003         -DE/DX =   -0.0001              !
 ! R9    R(4,10)                 1.0868         -DE/DX =    0.0                 !
 ! R10   R(5,6)                  1.4003         -DE/DX =   -0.0001              !
 ! R11   R(5,11)                 1.0868         -DE/DX =    0.0                 !
 ! R12   R(6,12)                 1.0868         -DE/DX =    0.0                 !
 ! A1    A(2,1,6)              119.9999         -DE/DX =    0.0                 !
 ! A2    A(2,1,7)              120.0003         -DE/DX =    0.0                 !
 ! A3    A(6,1,7)              119.9998         -DE/DX =    0.0                 !
 ! A4    A(1,2,3)              119.9999         -DE/DX =    0.0                 !
 ! A5    A(1,2,8)              120.0003         -DE/DX =    0.0                 !
 ! A6    A(3,2,8)              119.9998         -DE/DX =    0.0                 !
 ! A7    A(2,3,4)              120.0002         -DE/DX =    0.0                 !
 ! A8    A(2,3,9)              119.9999         -DE/DX =    0.0                 !
 ! A9    A(4,3,9)              119.9999         -DE/DX =    0.0                 !
 ! A10   A(3,4,5)              119.9999         -DE/DX =    0.0                 !
 ! A11   A(3,4,10)             119.9998         -DE/DX =    0.0                 !
 ! A12   A(5,4,10)             120.0003         -DE/DX =    0.0                 !
 ! A13   A(4,5,6)              119.9999         -DE/DX =    0.0                 !
 ! A14   A(4,5,11)             120.0003         -DE/DX =    0.0                 !
 ! A15   A(6,5,11)             119.9998         -DE/DX =    0.0                 !
 ! A16   A(1,6,5)              120.0002         -DE/DX =    0.0                 !
 ! A17   A(1,6,12)             119.9999         -DE/DX =    0.0                 !
 ! A18   A(5,6,12)             119.9999         -DE/DX =    0.0                 !
 ! D1    D(6,1,2,3)              0.0            -DE/DX =    0.0                 !
 ! D2    D(6,1,2,8)            179.9442         -DE/DX =    0.0                 !
 ! D3    D(7,1,2,3)           -179.9442         -DE/DX =    0.0                 !
 ! D4    D(7,1,2,8)              0.0            -DE/DX =    0.0                 !
 ! D5    D(2,1,6,5)              0.0002         -DE/DX =    0.0                 !
 ! D6    D(2,1,6,12)          -179.9442         -DE/DX =    0.0                 !
 ! D7    D(7,1,6,5)            179.9444         -DE/DX =    0.0                 !
 ! D8    D(7,1,6,12)             0.0            -DE/DX =    0.0                 !
 ! D9    D(1,2,3,4)             -0.0003         -DE/DX =    0.0                 !
 ! D10   D(1,2,3,9)            179.9442         -DE/DX =    0.0                 !
 ! D11   D(8,2,3,4)           -179.9444         -DE/DX =    0.0                 !
 ! D12   D(8,2,3,9)              0.0001         -DE/DX =    0.0                 !
 ! D13   D(2,3,4,5)              0.0003         -DE/DX =    0.0                 !
 ! D14   D(2,3,4,10)           179.9444         -DE/DX =    0.0                 !
 ! D15   D(9,3,4,5)           -179.9442         -DE/DX =    0.0                 !
 ! D16   D(9,3,4,10)            -0.0001         -DE/DX =    0.0                 !
 ! D17   D(3,4,5,6)              0.0            -DE/DX =    0.0                 !
 ! D18   D(3,4,5,11)           179.9442         -DE/DX =    0.0                 !
 ! D19   D(10,4,5,6)          -179.9442         -DE/DX =    0.0                 !
 ! D20   D(10,4,5,11)            0.0            -DE/DX =    0.0                 !
 ! D21   D(4,5,6,1)             -0.0002         -DE/DX =    0.0                 !
 ! D22   D(4,5,6,12)           179.9442         -DE/DX =    0.0                 !
 ! D23   D(11,5,6,1)          -179.9444         -DE/DX =    0.0                 !
 ! D24   D(11,5,6,12)            0.0            -DE/DX =    0.0                 !
 --------------------------------------------------------------------------------
 GradGradGradGradGradGradGradGradGradGradGradGradGradGradGradGradGradGrad

 Largest change from initial coordinates is atom    9       4.886 Angstoms.
 Leave Link  103 at Thu Jan  6 16:27:11 2022, MaxMem=  498073600 cpu:       0.8
 (Enter /apps/software//g09/l202.exe)
                          Input orientation:                          
 ---------------------------------------------------------------------
 Center     Atomic      Atomic             Coordinates (Angstroms)
 Number     Number       Type             X           Y           Z
 ---------------------------------------------------------------------
      1          6           0        0.163465   -0.700134   -1.212670
      2          6           0        0.163465    0.700134   -1.212670
      3          6           0        0.163467    1.400266    0.000000
      4          6           0        0.163465    0.700134    1.212670
      5          6           0        0.163465   -0.700134    1.212670
      6          6           0        0.163467   -1.400267    0.000000
      7          1           0        0.164381   -1.243517   -2.153825
      8          1           0        0.164381    1.243516   -2.153825
      9          1           0        0.164384    2.487021    0.000000
     10          1           0        0.164381    1.243516    2.153825
     11          1           0        0.164381   -1.243517    2.153825
     12          1           0        0.164384   -2.487022    0.000000
 ---------------------------------------------------------------------
                    Distance matrix (angstroms):
                    1          2          3          4          5
     1  C    0.000000
     2  C    1.400268   0.000000
     3  C    2.425335   1.400269   0.000000
     4  C    2.800540   2.425340   1.400269   0.000000
     5  C    2.425340   2.800540   2.425335   1.400268   0.000000
     6  C    1.400269   2.425335   2.800533   2.425335   1.400269
     7  H    1.086756   2.159525   3.410066   3.887295   3.410066
     8  H    2.159525   1.086756   2.159522   3.410066   3.887295
     9  H    3.410063   2.159522   1.086755   2.159522   3.410063
    10  H    3.887295   3.410066   2.159522   1.086756   2.159525
    11  H    3.410066   3.887295   3.410066   2.159525   1.086756
    12  H    2.159522   3.410063   3.887288   3.410063   2.159522
                    6          7          8          9         10
     6  C    0.000000
     7  H    2.159522   0.000000
     8  H    3.410066   2.487032   0.000000
     9  H    3.887288   4.307653   2.487020   0.000000
    10  H    3.410066   4.974050   4.307650   2.487020   0.000000
    11  H    2.159522   4.307650   4.974050   4.307653   2.487032
    12  H    1.086755   2.487020   4.307653   4.974043   4.307653
                   11         12
    11  H    0.000000
    12  H    2.487020   0.000000
 Stoichiometry    C6H6
 Framework group  CS[SG(C2H2),X(C4H4)]
 Deg. of freedom    17
 Full point group                 CS      NOp   2
 Largest Abelian subgroup         CS      NOp   2
 Largest concise Abelian subgroup CS      NOp   2
                         Standard orientation:                         
 ---------------------------------------------------------------------
 Center     Atomic      Atomic             Coordinates (Angstroms)
 Number     Number       Type             X           Y           Z
 ---------------------------------------------------------------------
      1          6           0       -0.000132    0.700134    1.212670
      2          6           0       -0.000132   -0.700134    1.212670
      3          6           0       -0.000129   -1.400267    0.000000
      4          6           0       -0.000132   -0.700134   -1.212670
      5          6           0       -0.000132    0.700134   -1.212670
      6          6           0       -0.000130    1.400267    0.000000
      7          1           0        0.000784    1.243516    2.153825
      8          1           0        0.000784   -1.243516    2.153825
      9          1           0        0.000788   -2.487021    0.000000
     10          1           0        0.000784   -1.243516   -2.153825
     11          1           0        0.000784    1.243516   -2.153825
     12          1           0        0.000787    2.487021    0.000000
 ---------------------------------------------------------------------
 Rotational constants (GHZ):      5.6600985      5.6600791      2.8300446
 Leave Link  202 at Thu Jan  6 16:27:12 2022, MaxMem=  498073600 cpu:       0.1
 (Enter /apps/software//g09/l601.exe)
 Copying SCF densities to generalized density rwf, IOpCl= 0 IROHF=0.

 **********************************************************************

            Population analysis using the MP2 density.

 **********************************************************************

 Orbital symmetries:
       Occupied  (A') (A") (A') (A") (A') (A') (A') (A") (A') (A")
                 (A') (A') (A') (A") (A") (A') (A') (A') (A") (A")
                 (A')
       Virtual   (A') (A") (A') (A") (A') (A') (A") (A') (A') (A')
                 (A") (A') (A") (A") (A') (A") (A') (A') (A') (A")
                 (A') (A") (A') (A') (A") (A') (A") (A') (A") (A')
                 (A") (A') (A') (A') (A") (A') (A") (A') (A') (A")
                 (A') (A") (A") (A') (A') (A') (A") (A') (A") (A')
                 (A") (A") (A') (A') (A') (A") (A') (A') (A") (A')
                 (A') (A") (A') (A') (A") (A") (A') (A') (A') (A")
                 (A") (A') (A') (A") (A") (A") (A') (A') (A") (A')
                 (A') (A") (A') (A") (A') (A') (A") (A') (A') (A")
                 (A") (A') (A') (A") (A') (A') (A") (A") (A') (A")
                 (A") (A') (A") (A') (A') (A") (A') (A") (A') (A")
                 (A") (A') (A') (A') (A") (A') (A") (A') (A') (A')
                 (A") (A') (A') (A") (A') (A') (A") (A") (A') (A")
                 (A') (A") (A') (A") (A") (A') (A') (A") (A') (A')
                 (A') (A") (A') (A') (A") (A") (A') (A") (A') (A')
                 (A") (A')
 The electronic state is 1-A'.
 Alpha  occ. eigenvalues --  -11.24128 -11.24072 -11.24072 -11.23953 -11.23953
 Alpha  occ. eigenvalues --  -11.23894  -1.14884  -1.01454  -1.01454  -0.82414
 Alpha  occ. eigenvalues --   -0.82414  -0.70854  -0.64517  -0.61871  -0.58861
 Alpha  occ. eigenvalues --   -0.58861  -0.49977  -0.49600  -0.49600  -0.33618
 Alpha  occ. eigenvalues --   -0.33618
 Alpha virt. eigenvalues --    0.04214   0.04894   0.04894   0.06616   0.06616
 Alpha virt. eigenvalues --    0.09774   0.10805   0.10805   0.12965   0.15272
 Alpha virt. eigenvalues --    0.15272   0.15809   0.16268   0.18070   0.18070
 Alpha virt. eigenvalues --    0.18344   0.18344   0.19278   0.20884   0.21212
 Alpha virt. eigenvalues --    0.21212   0.21572   0.21572   0.22819   0.22819
 Alpha virt. eigenvalues --    0.24678   0.25000   0.25119   0.28901   0.28901
 Alpha virt. eigenvalues --    0.30285   0.33325   0.36562   0.40711   0.40741
 Alpha virt. eigenvalues --    0.40871   0.42777   0.42777   0.49645   0.49645
 Alpha virt. eigenvalues --    0.50610   0.50610   0.60473   0.60748   0.71246
 Alpha virt. eigenvalues --    0.71589   0.72246   0.72246   0.74685   0.74823
 Alpha virt. eigenvalues --    0.74823   0.75868   0.75868   0.79626   0.81922
 Alpha virt. eigenvalues --    0.81922   0.87352   0.88445   0.93828   0.93834
 Alpha virt. eigenvalues --    0.94734   0.94734   0.97535   1.01539   1.01539
 Alpha virt. eigenvalues --    1.05934   1.05934   1.09372   1.11821   1.11821
 Alpha virt. eigenvalues --    1.12397   1.17051   1.21546   1.21546   1.24719
 Alpha virt. eigenvalues --    1.32112   1.32112   1.38782   1.38782   1.49699
 Alpha virt. eigenvalues --    1.55832   1.70882   1.77986   1.77987   1.79073
 Alpha virt. eigenvalues --    1.82181   1.84031   1.84031   1.90215   1.90215
 Alpha virt. eigenvalues --    1.92794   1.92794   1.98884   2.05204   2.05204
 Alpha virt. eigenvalues --    2.09792   2.09792   2.12279   2.23010   2.23010
 Alpha virt. eigenvalues --    2.23711   2.24375   2.24378   2.28989   2.33967
 Alpha virt. eigenvalues --    2.33967   2.37213   2.37213   2.62886   2.65196
 Alpha virt. eigenvalues --    2.73180   2.73180   2.73912   2.80886   2.80888
 Alpha virt. eigenvalues --    2.94774   2.94774   2.96753   2.98840   3.02075
 Alpha virt. eigenvalues --    3.02125   3.02164   3.04610   3.04610   3.05489
 Alpha virt. eigenvalues --    3.18905   3.18905   3.24837   3.29029   3.29030
 Alpha virt. eigenvalues --    3.31158   3.31158   3.47494   3.53322   3.76170
 Alpha virt. eigenvalues --    3.76170   3.89376   3.89376   3.90859   4.04963
 Alpha virt. eigenvalues --    4.40025   4.40025   4.48399   4.56963   4.56964
 Alpha virt. eigenvalues --    5.26654  24.74543  25.12099  25.12099  25.23570
 Alpha virt. eigenvalues --   25.23571  25.33793
          Condensed to atoms (all electrons):
              1          2          3          4          5          6
     1  C    5.724559   0.163638  -0.303193   0.466743  -0.310103   0.150117
     2  C    0.163638   5.724559   0.150117  -0.310103   0.466743  -0.303193
     3  C   -0.303193   0.150117   5.752731   0.150117  -0.303193   0.452474
     4  C    0.466743  -0.310103   0.150117   5.724559   0.163638  -0.303193
     5  C   -0.310103   0.466743  -0.303193   0.163638   5.724559   0.150117
     6  C    0.150117  -0.303193   0.452474  -0.303193   0.150117   5.752731
     7  H    0.434312  -0.082298  -0.015238   0.040930  -0.015295  -0.082255
     8  H   -0.082298   0.434312  -0.082255  -0.015295   0.040930  -0.015238
     9  H   -0.014933  -0.083210   0.436327  -0.083210  -0.014933   0.040834
    10  H    0.040930  -0.015295  -0.082255   0.434312  -0.082298  -0.015238
    11  H   -0.015295   0.040930  -0.015238  -0.082298   0.434312  -0.082255
    12  H   -0.083210  -0.014933   0.040834  -0.014933  -0.083210   0.436327
              7          8          9         10         11         12
     1  C    0.434312  -0.082298  -0.014933   0.040930  -0.015295  -0.083210
     2  C   -0.082298   0.434312  -0.083210  -0.015295   0.040930  -0.014933
     3  C   -0.015238  -0.082255   0.436327  -0.082255  -0.015238   0.040834
     4  C    0.040930  -0.015295  -0.083210   0.434312  -0.082298  -0.014933
     5  C   -0.015295   0.040930  -0.014933  -0.082298   0.434312  -0.083210
     6  C   -0.082255  -0.015238   0.040834  -0.015238  -0.082255   0.436327
     7  H    0.564787  -0.009020  -0.001946   0.002069  -0.001946  -0.009098
     8  H   -0.009020   0.564787  -0.009098  -0.001946   0.002069  -0.001946
     9  H   -0.001946  -0.009098   0.565365  -0.009098  -0.001946   0.002081
    10  H    0.002069  -0.001946  -0.009098   0.564787  -0.009020  -0.001946
    11  H   -0.001946   0.002069  -0.001946  -0.009020   0.564787  -0.009098
    12  H   -0.009098  -0.001946   0.002081  -0.001946  -0.009098   0.565365
 Mulliken atomic charges:
              1
     1  C   -0.171268
     2  C   -0.171268
     3  C   -0.181228
     4  C   -0.171268
     5  C   -0.171268
     6  C   -0.181228
     7  H    0.174998
     8  H    0.174998
     9  H    0.173766
    10  H    0.174998
    11  H    0.174998
    12  H    0.173766
 Sum of Mulliken atomic charges =   0.00000
 Mulliken charges with hydrogens summed into heavy atoms:
              1
     1  C    0.003731
     2  C    0.003731
     3  C   -0.007462
     4  C    0.003731
     5  C    0.003731
     6  C   -0.007462
 Sum of Mulliken charges with hydrogens summed into heavy atoms =   0.00000
 Electronic spatial extent (au):  <R**2>=            463.4009
 Charge=              0.0000 electrons
 Dipole moment (field-independent basis, Debye):
    X=              0.0038    Y=              0.0000    Z=              0.0000  Tot=              0.0038
 Quadrupole moment (field-independent basis, Debye-Ang):
   XX=            -40.9234   YY=            -32.5334   ZZ=            -32.5338
   XY=              0.0000   XZ=              0.0000   YZ=              0.0000
 Traceless Quadrupole moment (field-independent basis, Debye-Ang):
   XX=             -5.5932   YY=              2.7968   ZZ=              2.7964
   XY=              0.0000   XZ=              0.0000   YZ=              0.0000
 Octapole moment (field-independent basis, Debye-Ang**2):
  XXX=              0.0061  YYY=              0.0000  ZZZ=              0.0000  XYY=              0.0175
  XXY=              0.0000  XXZ=              0.0000  XZZ=              0.0174  YZZ=              0.0000
  YYZ=              0.0000  XYZ=              0.0000
 Hexadecapole moment (field-independent basis, Debye-Ang**3):
 XXXX=            -51.6393 YYYY=           -281.4037 ZZZZ=           -281.4128 XXXY=              0.0000
 XXXZ=              0.0000 YYYX=              0.0000 YYYZ=              0.0000 ZZZX=              0.0000
 ZZZY=              0.0000 XXYY=            -66.7569 XXZZ=            -66.7574 YYZZ=            -93.8023
 XXYZ=              0.0000 YYXZ=              0.0000 ZZXY=              0.0000
 N-N= 2.027437485580D+02 E-N=-9.430536926724D+02  KE= 2.313747523351D+02
 Symmetry A'   KE= 1.508824838400D+02
 Symmetry A"   KE= 8.049226849508D+01
 No NMR shielding tensors so no spin-rotation constants.
 Leave Link  601 at Thu Jan  6 16:27:12 2022, MaxMem=  498073600 cpu:       1.9
 (Enter /apps/software//g09/l9999.exe)
 1\1\GINC-DLT01\FOpt\RMP2-FC\6-311++G(d,p)\C6H6\ITAMAR\06-Jan-2022\0\\#
 P MP2/6-311++G** OPT DENSITY=MP2\\Pyramid-25\\0,1\C,0.1634652758,-0.70
 01343829,-1.2126699234\C,0.1634648389,0.7001337444,-1.2126698548\C,0.1
 634672745,1.4002664188,0.0000000001\C,0.1634648389,0.7001337442,1.2126
 698549\C,0.1634652758,-0.7001343831,1.2126699233\C,0.1634671881,-1.400
 267052,-0.0000000001\H,0.1643806525,-1.2435165408,-2.1538249043\H,0.16
 4380569,1.2435158174,-2.1538249256\H,0.1643836693,2.487021127,0.000000
 0002\H,0.164380569,1.2435158171,2.1538249258\H,0.1643806525,-1.2435165
 411,2.1538249041\H,0.1643841959,-2.4870217688,-0.0000000002\\Version=E
 M64L-G09RevA.02\State=1-A'\HF=-230.7551295\MP2=-231.5842148\RMSD=7.399
 e-09\RMSF=2.387e-05\Dipole=0.0014901,0.,0.\Quadrupole=-4.1584063,2.079
 3417,2.0790646,-0.0000015,0.,0.\PG=CS [SG(C2H2),X(C4H4)]\\@


 A people that values its privileges above its principles soon loses both.
 -- Dwight D. Eisenhower
 Job cpu time:  0 days  0 hours 18 minutes 58.6 seconds.
 File lengths (MBytes):  RWF=     20 Int=      0 D2E=      0 Chk=      4 Scr=      1
 Normal termination of Gaussian 09 at Thu Jan  6 16:27:12 2022.
