Pyramid-25                                                              
FOpt      RMP2-FC                                                     6-311++G(d,p)       
Number of atoms                            I               12
Info1-9                                    I   N=           9
          21          21           0           0           0         100
           2           2           1
Charge                                     I                0
Multiplicity                               I                1
Number of electrons                        I               42
Number of alpha electrons                  I               21
Number of beta electrons                   I               21
Number of basis functions                  I              174
Number of independent functions            I              173
Number of point charges in /Mol/           I                0
Number of translation vectors              I                0
Atomic numbers                             I   N=          12
           6           6           6           6           6           6
           1           1           1           1           1           1
Nuclear charges                            R   N=          12
  6.00000000E+00  6.00000000E+00  6.00000000E+00  6.00000000E+00  6.00000000E+00
  6.00000000E+00  1.00000000E+00  1.00000000E+00  1.00000000E+00  1.00000000E+00
  1.00000000E+00  1.00000000E+00
Current cartesian coordinates              R   N=          36
 -2.48636293E-04  1.32306163E+00  2.29161404E+00 -2.48636293E-04 -1.32306164E+00
  2.29161392E+00 -2.43620748E-04 -2.64612065E+00  1.05930817E-22 -2.48636293E-04
 -1.32306164E+00 -2.29161392E+00 -2.48636293E-04  1.32306163E+00 -2.29161404E+00
 -2.45435396E-04  2.64612063E+00 -1.05827420E-22  1.48085444E-03  2.34990509E+00
  4.07013921E+00  1.48216326E-03 -2.34990495E+00  4.07013925E+00  1.48875527E-03
 -4.69978943E+00  1.87873397E-22  1.48216326E-03 -2.34990495E+00 -4.07013925E+00
  1.48085444E-03  2.34990509E+00 -4.07013921E+00  1.48681722E-03  4.69978942E+00
 -1.87925095E-22
Force Field                                I                0
Int Atom Types                             I   N=          12
           0           0           0           0           0           0
           0           0           0           0           0           0
MM charges                                 R   N=          12
  0.00000000E+00  0.00000000E+00  0.00000000E+00  0.00000000E+00  0.00000000E+00
  0.00000000E+00  0.00000000E+00  0.00000000E+00  0.00000000E+00  0.00000000E+00
  0.00000000E+00  0.00000000E+00
Integer atomic weights                     I   N=          12
          12          12          12          12          12          12
           1           1           1           1           1           1
Real atomic weights                        R   N=          12
  1.20000000E+01  1.20000000E+01  1.20000000E+01  1.20000000E+01  1.20000000E+01
  1.20000000E+01  1.00782504E+00  1.00782504E+00  1.00782504E+00  1.00782504E+00
  1.00782504E+00  1.00782504E+00
Atom fragment info                         I   N=          12
           0           0           0           0           0           0
           0           0           0           0           0           0
Atom residue num                           I   N=          12
           0           0           0           0           0           0
           0           0           0           0           0           0
Nuclear spins                              I   N=          12
           0           0           0           0           0           0
           1           1           1           1           1           1
Nuclear ZEff                               R   N=          12
 -3.60000000E+00 -3.60000000E+00 -3.60000000E+00 -3.60000000E+00 -3.60000000E+00
 -3.60000000E+00 -1.00000000E+00 -1.00000000E+00 -1.00000000E+00 -1.00000000E+00
 -1.00000000E+00 -1.00000000E+00
Nuclear QMom                               R   N=          12
  0.00000000E+00  0.00000000E+00  0.00000000E+00  0.00000000E+00  0.00000000E+00
  0.00000000E+00  0.00000000E+00  0.00000000E+00  0.00000000E+00  0.00000000E+00
  0.00000000E+00  0.00000000E+00
Nuclear GFac                               R   N=          12
  0.00000000E+00  0.00000000E+00  0.00000000E+00  0.00000000E+00  0.00000000E+00
  0.00000000E+00  2.79284600E+00  2.79284600E+00  2.79284600E+00  2.79284600E+00
  2.79284600E+00  2.79284600E+00
MicOpt                                     I   N=          12
          -1          -1          -1          -1          -1          -1
          -1          -1          -1          -1          -1          -1
Number of contracted shells                I               66
Number of primitive shells                 I              120
Pure/Cartesian d shells                    I                0
Pure/Cartesian f shells                    I                0
Highest angular momentum                   I                2
Largest degree of contraction              I                6
Shell types                                I   N=          66
           0          -1          -1          -1          -1          -2
           0          -1          -1          -1          -1          -2
           0          -1          -1          -1          -1          -2
           0          -1          -1          -1          -1          -2
           0          -1          -1          -1          -1          -2
           0          -1          -1          -1          -1          -2
           0           0           0           0           1           0
           0           0           0           1           0           0
           0           0           1           0           0           0
           0           1           0           0           0           0
           1           0           0           0           0           1
Number of primitives per shell             I   N=          66
           6           3           1           1           1           1
           6           3           1           1           1           1
           6           3           1           1           1           1
           6           3           1           1           1           1
           6           3           1           1           1           1
           6           3           1           1           1           1
           3           1           1           1           1           3
           1           1           1           1           3           1
           1           1           1           3           1           1
           1           1           3           1           1           1
           1           3           1           1           1           1
Shell to atom map                          I   N=          66
           1           1           1           1           1           1
           2           2           2           2           2           2
           3           3           3           3           3           3
           4           4           4           4           4           4
           5           5           5           5           5           5
           6           6           6           6           6           6
           7           7           7           7           7           8
           8           8           8           8           9           9
           9           9           9          10          10          10
          10          10          11          11          11          11
          11          12          12          12          12          12
Primitive exponents                        R   N=         120
  4.56324000E+03  6.82024000E+02  1.54973000E+02  4.44553000E+01  1.30290000E+01
  1.82773000E+00  2.09642000E+01  4.80331000E+00  1.45933000E+00  4.83456000E-01
  1.45585000E-01  4.38000000E-02  6.26000000E-01  4.56324000E+03  6.82024000E+02
  1.54973000E+02  4.44553000E+01  1.30290000E+01  1.82773000E+00  2.09642000E+01
  4.80331000E+00  1.45933000E+00  4.83456000E-01  1.45585000E-01  4.38000000E-02
  6.26000000E-01  4.56324000E+03  6.82024000E+02  1.54973000E+02  4.44553000E+01
  1.30290000E+01  1.82773000E+00  2.09642000E+01  4.80331000E+00  1.45933000E+00
  4.83456000E-01  1.45585000E-01  4.38000000E-02  6.26000000E-01  4.56324000E+03
  6.82024000E+02  1.54973000E+02  4.44553000E+01  1.30290000E+01  1.82773000E+00
  2.09642000E+01  4.80331000E+00  1.45933000E+00  4.83456000E-01  1.45585000E-01
  4.38000000E-02  6.26000000E-01  4.56324000E+03  6.82024000E+02  1.54973000E+02
  4.44553000E+01  1.30290000E+01  1.82773000E+00  2.09642000E+01  4.80331000E+00
  1.45933000E+00  4.83456000E-01  1.45585000E-01  4.38000000E-02  6.26000000E-01
  4.56324000E+03  6.82024000E+02  1.54973000E+02  4.44553000E+01  1.30290000E+01
  1.82773000E+00  2.09642000E+01  4.80331000E+00  1.45933000E+00  4.83456000E-01
  1.45585000E-01  4.38000000E-02  6.26000000E-01  3.38650000E+01  5.09479000E+00
  1.15879000E+00  3.25840000E-01  1.02741000E-01  3.60000000E-02  7.50000000E-01
  3.38650000E+01  5.09479000E+00  1.15879000E+00  3.25840000E-01  1.02741000E-01
  3.60000000E-02  7.50000000E-01  3.38650000E+01  5.09479000E+00  1.15879000E+00
  3.25840000E-01  1.02741000E-01  3.60000000E-02  7.50000000E-01  3.38650000E+01
  5.09479000E+00  1.15879000E+00  3.25840000E-01  1.02741000E-01  3.60000000E-02
  7.50000000E-01  3.38650000E+01  5.09479000E+00  1.15879000E+00  3.25840000E-01
  1.02741000E-01  3.60000000E-02  7.50000000E-01  3.38650000E+01  5.09479000E+00
  1.15879000E+00  3.25840000E-01  1.02741000E-01  3.60000000E-02  7.50000000E-01
Contraction coefficients                   R   N=         120
  1.96665025E-03  1.52306019E-02  7.61269097E-02  2.60801033E-01  6.16462078E-01
  2.21006028E-01  1.14660081E-01  9.19999648E-01 -3.03068213E-03  1.00000000E+00
  1.00000000E+00  1.00000000E+00  1.00000000E+00  1.96665025E-03  1.52306019E-02
  7.61269097E-02  2.60801033E-01  6.16462078E-01  2.21006028E-01  1.14660081E-01
  9.19999648E-01 -3.03068213E-03  1.00000000E+00  1.00000000E+00  1.00000000E+00
  1.00000000E+00  1.96665025E-03  1.52306019E-02  7.61269097E-02  2.60801033E-01
  6.16462078E-01  2.21006028E-01  1.14660081E-01  9.19999648E-01 -3.03068213E-03
  1.00000000E+00  1.00000000E+00  1.00000000E+00  1.00000000E+00  1.96665025E-03
  1.52306019E-02  7.61269097E-02  2.60801033E-01  6.16462078E-01  2.21006028E-01
  1.14660081E-01  9.19999648E-01 -3.03068213E-03  1.00000000E+00  1.00000000E+00
  1.00000000E+00  1.00000000E+00  1.96665025E-03  1.52306019E-02  7.61269097E-02
  2.60801033E-01  6.16462078E-01  2.21006028E-01  1.14660081E-01  9.19999648E-01
 -3.03068213E-03  1.00000000E+00  1.00000000E+00  1.00000000E+00  1.00000000E+00
  1.96665025E-03  1.52306019E-02  7.61269097E-02  2.60801033E-01  6.16462078E-01
  2.21006028E-01  1.14660081E-01  9.19999648E-01 -3.03068213E-03  1.00000000E+00
  1.00000000E+00  1.00000000E+00  1.00000000E+00  2.54938145E-02  1.90373109E-01
  8.52161486E-01  1.00000000E+00  1.00000000E+00  1.00000000E+00  1.00000000E+00
  2.54938145E-02  1.90373109E-01  8.52161486E-01  1.00000000E+00  1.00000000E+00
  1.00000000E+00  1.00000000E+00  2.54938145E-02  1.90373109E-01  8.52161486E-01
  1.00000000E+00  1.00000000E+00  1.00000000E+00  1.00000000E+00  2.54938145E-02
  1.90373109E-01  8.52161486E-01  1.00000000E+00  1.00000000E+00  1.00000000E+00
  1.00000000E+00  2.54938145E-02  1.90373109E-01  8.52161486E-01  1.00000000E+00
  1.00000000E+00  1.00000000E+00  1.00000000E+00  2.54938145E-02  1.90373109E-01
  8.52161486E-01  1.00000000E+00  1.00000000E+00  1.00000000E+00  1.00000000E+00
P(S=P) Contraction coefficients            R   N=         120
  0.00000000E+00  0.00000000E+00  0.00000000E+00  0.00000000E+00  0.00000000E+00
  0.00000000E+00  4.02486927E-02  2.37593957E-01  8.15853851E-01  1.00000000E+00
  1.00000000E+00  1.00000000E+00  0.00000000E+00  0.00000000E+00  0.00000000E+00
  0.00000000E+00  0.00000000E+00  0.00000000E+00  0.00000000E+00  4.02486927E-02
  2.37593957E-01  8.15853851E-01  1.00000000E+00  1.00000000E+00  1.00000000E+00
  0.00000000E+00  0.00000000E+00  0.00000000E+00  0.00000000E+00  0.00000000E+00
  0.00000000E+00  0.00000000E+00  4.02486927E-02  2.37593957E-01  8.15853851E-01
  1.00000000E+00  1.00000000E+00  1.00000000E+00  0.00000000E+00  0.00000000E+00
  0.00000000E+00  0.00000000E+00  0.00000000E+00  0.00000000E+00  0.00000000E+00
  4.02486927E-02  2.37593957E-01  8.15853851E-01  1.00000000E+00  1.00000000E+00
  1.00000000E+00  0.00000000E+00  0.00000000E+00  0.00000000E+00  0.00000000E+00
  0.00000000E+00  0.00000000E+00  0.00000000E+00  4.02486927E-02  2.37593957E-01
  8.15853851E-01  1.00000000E+00  1.00000000E+00  1.00000000E+00  0.00000000E+00
  0.00000000E+00  0.00000000E+00  0.00000000E+00  0.00000000E+00  0.00000000E+00
  0.00000000E+00  4.02486927E-02  2.37593957E-01  8.15853851E-01  1.00000000E+00
  1.00000000E+00  1.00000000E+00  0.00000000E+00  0.00000000E+00  0.00000000E+00
  0.00000000E+00  0.00000000E+00  0.00000000E+00  0.00000000E+00  0.00000000E+00
  0.00000000E+00  0.00000000E+00  0.00000000E+00  0.00000000E+00  0.00000000E+00
  0.00000000E+00  0.00000000E+00  0.00000000E+00  0.00000000E+00  0.00000000E+00
  0.00000000E+00  0.00000000E+00  0.00000000E+00  0.00000000E+00  0.00000000E+00
  0.00000000E+00  0.00000000E+00  0.00000000E+00  0.00000000E+00  0.00000000E+00
  0.00000000E+00  0.00000000E+00  0.00000000E+00  0.00000000E+00  0.00000000E+00
  0.00000000E+00  0.00000000E+00  0.00000000E+00  0.00000000E+00  0.00000000E+00
  0.00000000E+00  0.00000000E+00  0.00000000E+00  0.00000000E+00  0.00000000E+00
Coordinates of each shell                  R   N=         198
 -2.48636293E-04  1.32306163E+00  2.29161404E+00 -2.48636293E-04  1.32306163E+00
  2.29161404E+00 -2.48636293E-04  1.32306163E+00  2.29161404E+00 -2.48636293E-04
  1.32306163E+00  2.29161404E+00 -2.48636293E-04  1.32306163E+00  2.29161404E+00
 -2.48636293E-04  1.32306163E+00  2.29161404E+00 -2.48636293E-04 -1.32306164E+00
  2.29161392E+00 -2.48636293E-04 -1.32306164E+00  2.29161392E+00 -2.48636293E-04
 -1.32306164E+00  2.29161392E+00 -2.48636293E-04 -1.32306164E+00  2.29161392E+00
 -2.48636293E-04 -1.32306164E+00  2.29161392E+00 -2.48636293E-04 -1.32306164E+00
  2.29161392E+00 -2.43620748E-04 -2.64612065E+00  7.10341351E-23 -2.43620748E-04
 -2.64612065E+00  7.10341351E-23 -2.43620748E-04 -2.64612065E+00  7.10341351E-23
 -2.43620748E-04 -2.64612065E+00  7.10341351E-23 -2.43620748E-04 -2.64612065E+00
  7.10341351E-23 -2.43620748E-04 -2.64612065E+00  7.10341351E-23 -2.48636293E-04
 -1.32306164E+00 -2.29161392E+00 -2.48636293E-04 -1.32306164E+00 -2.29161392E+00
 -2.48636293E-04 -1.32306164E+00 -2.29161392E+00 -2.48636293E-04 -1.32306164E+00
 -2.29161392E+00 -2.48636293E-04 -1.32306164E+00 -2.29161392E+00 -2.48636293E-04
 -1.32306164E+00 -2.29161392E+00 -2.48636293E-04  1.32306163E+00 -2.29161404E+00
 -2.48636293E-04  1.32306163E+00 -2.29161404E+00 -2.48636293E-04  1.32306163E+00
 -2.29161404E+00 -2.48636293E-04  1.32306163E+00 -2.29161404E+00 -2.48636293E-04
  1.32306163E+00 -2.29161404E+00 -2.48636293E-04  1.32306163E+00 -2.29161404E+00
 -2.45435396E-04  2.64612063E+00 -7.10599845E-23 -2.45435396E-04  2.64612063E+00
 -7.10599845E-23 -2.45435396E-04  2.64612063E+00 -7.10599845E-23 -2.45435396E-04
  2.64612063E+00 -7.10599845E-23 -2.45435396E-04  2.64612063E+00 -7.10599845E-23
 -2.45435396E-04  2.64612063E+00 -7.10599845E-23  1.48085444E-03  2.34990509E+00
  4.07013921E+00  1.48085444E-03  2.34990509E+00  4.07013921E+00  1.48085444E-03
  2.34990509E+00  4.07013921E+00  1.48085444E-03  2.34990509E+00  4.07013921E+00
  1.48085444E-03  2.34990509E+00  4.07013921E+00  1.48216326E-03 -2.34990495E+00
  4.07013925E+00  1.48216326E-03 -2.34990495E+00  4.07013925E+00  1.48216326E-03
 -2.34990495E+00  4.07013925E+00  1.48216326E-03 -2.34990495E+00  4.07013925E+00
  1.48216326E-03 -2.34990495E+00  4.07013925E+00  1.48875527E-03 -4.69978943E+00
  1.26093345E-22  1.48875527E-03 -4.69978943E+00  1.26093345E-22  1.48875527E-03
 -4.69978943E+00  1.26093345E-22  1.48875527E-03 -4.69978943E+00  1.26093345E-22
  1.48875527E-03 -4.69978943E+00  1.26093345E-22  1.48216326E-03 -2.34990495E+00
 -4.07013925E+00  1.48216326E-03 -2.34990495E+00 -4.07013925E+00  1.48216326E-03
 -2.34990495E+00 -4.07013925E+00  1.48216326E-03 -2.34990495E+00 -4.07013925E+00
  1.48216326E-03 -2.34990495E+00 -4.07013925E+00  1.48085444E-03  2.34990509E+00
 -4.07013921E+00  1.48085444E-03  2.34990509E+00 -4.07013921E+00  1.48085444E-03
  2.34990509E+00 -4.07013921E+00  1.48085444E-03  2.34990509E+00 -4.07013921E+00
  1.48085444E-03  2.34990509E+00 -4.07013921E+00  1.48681722E-03  4.69978942E+00
 -1.26145043E-22  1.48681722E-03  4.69978942E+00 -1.26145043E-22  1.48681722E-03
  4.69978942E+00 -1.26145043E-22  1.48681722E-03  4.69978942E+00 -1.26145043E-22
  1.48681722E-03  4.69978942E+00 -1.26145043E-22
Constraint Structure                       R   N=          36
  1.23887836E-01 -1.32188705E+00  2.28947124E+00  1.23887836E-01  1.32188705E+00
  2.28947124E+00  1.23947362E-01  2.64387898E+00 -1.63578197E-26  1.23887836E-01
  1.32188705E+00 -2.28947124E+00  1.23887836E-01 -1.32188705E+00 -2.28947124E+00
  1.23951142E-01 -2.64387898E+00  1.62568455E-26 -7.43475008E-01 -2.25171797E+00
  3.90045332E+00 -7.43476337E-01  2.25171673E+00  3.90045332E+00 -7.43402358E-01
  4.50391501E+00 -2.76669297E-26 -7.43476337E-01  2.25171673E+00 -3.90045332E+00
 -7.43475008E-01 -2.25171797E+00 -3.90045332E+00 -7.43394029E-01 -4.50391247E+00
  2.78688781E-26
Num ILSW                                   I              100
ILSW                                       I   N=         100
           0           0           0           0           2           0
           0           0           0           0           0          -1
           0           0           0           0           0           0
           0           0           0           0           1           0
           1           0           0           0           0           0
           0           0      100000           0          -1           0
           0           0           0           0           0           0
           0           0           0           1           0           0
           0           0           1           0           0           0
           0           0           4          40           0           0
           0           0           0           0           0           0
           0           0           0           0           0           0
           0           0           0           0           0           0
           0           0           0           0           0           0
           0           0           0           0           0           0
           0           0           0           0           0           0
           0           0           0           0
Num RLSW                                   I               40
RLSW                                       R   N=          40
  1.00000000E+00  1.00000000E+00  1.00000000E+00  1.00000000E+00  1.00000000E+00
  0.00000000E+00  0.00000000E+00  1.00000000E+00  0.00000000E+00  0.00000000E+00
  0.00000000E+00  0.00000000E+00  1.00000000E+00  0.00000000E+00  0.00000000E+00
  0.00000000E+00  0.00000000E+00  1.00000000E+00  0.00000000E+00  0.00000000E+00
  0.00000000E+00  0.00000000E+00  1.00000000E+00  0.00000000E+00  0.00000000E+00
  0.00000000E+00  0.00000000E+00  1.00000000E+00  0.00000000E+00  0.00000000E+00
  0.00000000E+00  0.00000000E+00  0.00000000E+00  0.00000000E+00  0.00000000E+00
  0.00000000E+00  0.00000000E+00  0.00000000E+00  1.00000000E+00  1.00000000E+00
MxBond                                     I                3
NBond                                      I   N=          12
           3           3           3           3           3           3
           1           1           1           1           1           1
IBond                                      I   N=          36
           2           6           7           1           3           8
           2           4           9           3           5          10
           4           6          11           1           5          12
           1           0           0           2           0           0
           3           0           0           4           0           0
           5           0           0           6           0           0
RBond                                      R   N=          36
  1.50000000E+00  1.50000000E+00  1.00000000E+00  1.50000000E+00  1.50000000E+00
  1.00000000E+00  1.50000000E+00  1.50000000E+00  1.00000000E+00  1.50000000E+00
  1.50000000E+00  1.00000000E+00  1.50000000E+00  1.50000000E+00  1.00000000E+00
  1.50000000E+00  1.50000000E+00  1.00000000E+00  1.00000000E+00  0.00000000E+00
  0.00000000E+00  1.00000000E+00  0.00000000E+00  0.00000000E+00  1.00000000E+00
  0.00000000E+00  0.00000000E+00  1.00000000E+00  0.00000000E+00  0.00000000E+00
  1.00000000E+00  0.00000000E+00  0.00000000E+00  1.00000000E+00  0.00000000E+00
  0.00000000E+00
Virial Ratio                               R      2.001775888595740E+00
SCF Energy                                 R     -2.307551294507939E+02
MP2 Energy                                 R     -2.315842148204817E+02
Total Energy                               R     -2.315842148204817E+02
Post-SCF wavefunction norm                 R      1.144124172678101E+00
RMS Force                                  R      2.387433042362961E-05
RMS Density                                R      7.398817076030152E-09
External E-field                           R   N=          35
  0.00000000E+00  0.00000000E+00  0.00000000E+00  0.00000000E+00  0.00000000E+00
  0.00000000E+00  0.00000000E+00  0.00000000E+00  0.00000000E+00  0.00000000E+00
  0.00000000E+00  0.00000000E+00  0.00000000E+00  0.00000000E+00  0.00000000E+00
  0.00000000E+00  0.00000000E+00  0.00000000E+00  0.00000000E+00  0.00000000E+00
  0.00000000E+00  0.00000000E+00  0.00000000E+00  0.00000000E+00  0.00000000E+00
  0.00000000E+00  0.00000000E+00  0.00000000E+00  0.00000000E+00  0.00000000E+00
  0.00000000E+00  0.00000000E+00  0.00000000E+00  0.00000000E+00  0.00000000E+00
IOpCl                                      I                0
IROHF                                      I                0
Alpha Orbital Energies                     R   N=         173
 -1.12412783E+01 -1.12407239E+01 -1.12407238E+01 -1.12395259E+01 -1.12395259E+01
 -1.12389384E+01 -1.14884291E+00 -1.01453580E+00 -1.01453521E+00 -8.24142734E-01
 -8.24142190E-01 -7.08543771E-01 -6.45167163E-01 -6.18713548E-01 -5.88608949E-01
 -5.88607884E-01 -4.99774508E-01 -4.96004422E-01 -4.96004084E-01 -3.36184335E-01
 -3.36183732E-01  4.21421567E-02  4.89384916E-02  4.89404046E-02  6.61629165E-02
  6.61630023E-02  9.77422700E-02  1.08050730E-01  1.08050734E-01  1.29652138E-01
  1.52717000E-01  1.52717012E-01  1.58086405E-01  1.62677398E-01  1.80704466E-01
  1.80704659E-01  1.83438669E-01  1.83443986E-01  1.92779705E-01  2.08844534E-01
  2.12122415E-01  2.12122818E-01  2.15724072E-01  2.15724085E-01  2.28186799E-01
  2.28191504E-01  2.46783478E-01  2.49997251E-01  2.51193654E-01  2.89006060E-01
  2.89006105E-01  3.02847157E-01  3.33248894E-01  3.65615284E-01  4.07113485E-01
  4.07410147E-01  4.08712513E-01  4.27771749E-01  4.27772085E-01  4.96447592E-01
  4.96448653E-01  5.06096613E-01  5.06100435E-01  6.04728965E-01  6.07480377E-01
  7.12464803E-01  7.15885293E-01  7.22459718E-01  7.22460317E-01  7.46851691E-01
  7.48226753E-01  7.48226786E-01  7.58676830E-01  7.58676872E-01  7.96261714E-01
  8.19223419E-01  8.19223465E-01  8.73524528E-01  8.84452407E-01  9.38275493E-01
  9.38341476E-01  9.47340523E-01  9.47341920E-01  9.75346497E-01  1.01538822E+00
  1.01538856E+00  1.05933622E+00  1.05933632E+00  1.09371963E+00  1.11821088E+00
  1.11821125E+00  1.12396763E+00  1.17051033E+00  1.21546193E+00  1.21546193E+00
  1.24719435E+00  1.32112203E+00  1.32112331E+00  1.38781681E+00  1.38781695E+00
  1.49699067E+00  1.55831850E+00  1.70881730E+00  1.77986359E+00  1.77987230E+00
  1.79073140E+00  1.82181207E+00  1.84030870E+00  1.84030918E+00  1.90214837E+00
  1.90215044E+00  1.92793791E+00  1.92794031E+00  1.98884460E+00  2.05204122E+00
  2.05204292E+00  2.09791511E+00  2.09791619E+00  2.12279484E+00  2.23009572E+00
  2.23009723E+00  2.23710556E+00  2.24374769E+00  2.24377709E+00  2.28989259E+00
  2.33967338E+00  2.33967449E+00  2.37212878E+00  2.37213091E+00  2.62885670E+00
  2.65196455E+00  2.73180006E+00  2.73180333E+00  2.73912257E+00  2.80886084E+00
  2.80887938E+00  2.94773612E+00  2.94774436E+00  2.96752684E+00  2.98839700E+00
  3.02074824E+00  3.02125255E+00  3.02163815E+00  3.04609915E+00  3.04610037E+00
  3.05489073E+00  3.18905222E+00  3.18905295E+00  3.24836642E+00  3.29029492E+00
  3.29029519E+00  3.31158075E+00  3.31158395E+00  3.47494201E+00  3.53321544E+00
  3.76170085E+00  3.76170298E+00  3.89375794E+00  3.89376018E+00  3.90858816E+00
  4.04962787E+00  4.40024732E+00  4.40024738E+00  4.48399254E+00  4.56962874E+00
  4.56964012E+00  5.26653684E+00  2.47454317E+01  2.51209876E+01  2.51209907E+01
  2.52357028E+01  2.52357054E+01  2.53379285E+01
Alpha MO coefficients                      R   N=       30102
  2.29925070E-01  1.90371189E-01 -2.26686652E-07 -1.49786731E-05 -2.59444917E-05
  1.99947424E-03  1.59849409E-07 -9.16261703E-05 -1.58703923E-04 -3.78405990E-04
 -7.53374483E-08  6.39511118E-06  1.10860945E-05 -8.99351927E-05 -5.78482512E-08
 -9.38801548E-05 -1.62656349E-04  2.92839709E-05  1.75123431E-08 -5.56133351E-05
 -1.14936560E-04  1.01605790E-08  2.29916474E-01  1.90364071E-01 -2.26444800E-07
  1.49859592E-05 -2.59398251E-05  1.99940441E-03  1.59927472E-07  9.16311129E-05
 -1.58696921E-04 -3.78399500E-04 -7.60904747E-08 -6.40530341E-06  1.10830230E-05
 -8.99073039E-05 -5.50771678E-08  9.39095848E-05 -1.62599348E-04  2.92785956E-05
  1.75111221E-08  5.56088082E-05 -1.14934052E-04 -1.02854039E-08  2.29900012E-01
  1.90350435E-01 -2.27055506E-07  2.99625844E-05  0.00000000E+00  1.99928384E-03
  1.58920904E-07  1.83246434E-04  0.00000000E+00 -3.78381981E-04 -7.44845294E-08
 -1.27974995E-05  0.00000000E+00 -8.99704236E-05 -6.07263160E-08  1.87713227E-04
  0.00000000E+00  1.12689632E-04  0.00000000E+00  0.00000000E+00 -6.67612664E-05
 -2.06669135E-08  2.29916474E-01  1.90364071E-01 -2.26444800E-07  1.49859592E-05
  2.59398251E-05  1.99940441E-03  1.59927472E-07  9.16311129E-05  1.58696921E-04
 -3.78399500E-04 -7.60904747E-08 -6.40530341E-06 -1.10830230E-05 -8.99073039E-05
 -5.50771678E-08  9.39095848E-05  1.62599348E-04  2.92785956E-05 -1.75111221E-08
 -5.56088082E-05 -1.14934052E-04 -1.02854039E-08  2.29925070E-01  1.90371189E-01
 -2.26686652E-07 -1.49786731E-05  2.59444917E-05  1.99947424E-03  1.59849409E-07
 -9.16261703E-05  1.58703923E-04 -3.78405990E-04 -7.53374483E-08  6.39511118E-06
 -1.10860945E-05 -8.99351927E-05 -5.78482512E-08 -9.38801548E-05  1.62656349E-04
  2.92839709E-05 -1.75123431E-08  5.56133351E-05 -1.14936560E-04  1.01605790E-08
  2.29918401E-01  1.90365663E-01 -2.26820032E-07 -2.99626108E-05  0.00000000E+00
  1.99943142E-03  1.59151462E-07 -1.83254016E-04  0.00000000E+00 -3.78403040E-04
 -7.52575054E-08  1.27981309E-05  0.00000000E+00 -9.00616410E-05 -5.78636170E-08
 -1.87774314E-04  0.00000000E+00  1.12698976E-04  0.00000000E+00  0.00000000E+00
 -6.67683625E-05  2.06437335E-08  1.75689621E-04 -1.07260080E-05  2.35792338E-04
  8.43117435E-05 -4.72851961E-08 -1.68460160E-05 -2.91776007E-05  1.75683032E-04
 -1.07232464E-05  2.35778307E-04  8.42933656E-05 -4.72699662E-08  1.68473216E-05
 -2.91762034E-05  1.75671252E-04 -1.07185886E-05  2.35762282E-04  8.42696532E-05
 -4.73941643E-08  3.36904887E-05  0.00000000E+00  1.75683032E-04 -1.07232464E-05
  2.35778307E-04  8.42933656E-05 -4.72699662E-08  1.68473216E-05  2.91762034E-05
  1.75689621E-04 -1.07260080E-05  2.35792338E-04  8.43117435E-05 -4.72851961E-08
 -1.68460160E-05  2.91776007E-05  1.75685347E-04 -1.07249340E-05  2.35789423E-04
  8.43049875E-05 -4.73586309E-08 -3.36916466E-05  0.00000000E+00  2.81628767E-01
  2.33216645E-01 -2.98322026E-07 -8.04209516E-05  4.04224923E-05  2.27321992E-03
  3.03538880E-07 -1.28758856E-04 -5.98442002E-05 -2.88512029E-04 -1.31538951E-07
  8.52497360E-05 -7.04652284E-05 -1.25824920E-03 -4.07754000E-07 -9.94367087E-04
 -5.84370122E-04  9.80711317E-06  4.33402174E-08 -3.39950497E-05 -1.83399341E-04
  8.34505342E-08  2.81624584E-01  2.33213180E-01 -2.98037243E-07  8.04230562E-05
  4.04218351E-05  2.27319082E-03  3.03474995E-07  1.28758933E-04 -5.98430310E-05
 -2.88507101E-04 -1.31437514E-07 -8.52485827E-05 -7.04670779E-05 -1.25830596E-03
 -4.09249654E-07  9.94353311E-04 -5.84350974E-04  9.80528252E-06  4.33353016E-08
  3.39945865E-05 -1.83396315E-04 -8.36572438E-08  0.00000000E+00  0.00000000E+00
  0.00000000E+00  0.00000000E+00  1.79716213E-04  0.00000000E+00  0.00000000E+00
  0.00000000E+00  1.63171707E-04  0.00000000E+00  0.00000000E+00  0.00000000E+00
 -2.18121313E-04  0.00000000E+00  0.00000000E+00  0.00000000E+00  1.13791208E-03
  0.00000000E+00 -1.00977268E-07  1.10120563E-04  0.00000000E+00  0.00000000E+00
 -2.81624584E-01 -2.33213180E-01  2.98037243E-07 -8.04230562E-05  4.04218351E-05
 -2.27319082E-03 -3.03474995E-07 -1.28758933E-04 -5.98430310E-05  2.88507101E-04
  1.31437514E-07  8.52485827E-05 -7.04670779E-05  1.25830596E-03  4.09249654E-07
 -9.94353311E-04 -5.84350974E-04 -9.80528252E-06  4.33353016E-08  3.39945865E-05
  1.83396315E-04  8.36572438E-08 -2.81628767E-01 -2.33216645E-01  2.98322026E-07
  8.04209516E-05  4.04224923E-05 -2.27321992E-03 -3.03538880E-07  1.28758856E-04
 -5.98442002E-05  2.88512029E-04  1.31538951E-07 -8.52497360E-05 -7.04652284E-05
  1.25824920E-03  4.07754000E-07  9.94367087E-04 -5.84370122E-04 -9.80711317E-06
  4.33402174E-08 -3.39950497E-05  1.83399341E-04 -8.34505342E-08  0.00000000E+00
  0.00000000E+00  0.00000000E+00  0.00000000E+00  1.79718959E-04  0.00000000E+00