 Entering Gaussian System, Link 0=g16
 Initial command:
 /sw/cluster/pub/apps//g16/l1.exe "/data/mmaximo/31227/Gau-2372.inp" -scrdir="/data/mmaximo/31227/"
 Entering Link 1 = /sw/cluster/pub/apps//g16/l1.exe PID=      2373.
  
 Copyright (c) 1988,1990,1992,1993,1995,1998,2003,2009,2016,
            Gaussian, Inc.  All Rights Reserved.
  
 This is part of the Gaussian(R) 16 program.  It is based on
 the Gaussian(R) 09 system (copyright 2009, Gaussian, Inc.),
 the Gaussian(R) 03 system (copyright 2003, Gaussian, Inc.),
 the Gaussian(R) 98 system (copyright 1998, Gaussian, Inc.),
 the Gaussian(R) 94 system (copyright 1995, Gaussian, Inc.),
 the Gaussian 92(TM) system (copyright 1992, Gaussian, Inc.),
 the Gaussian 90(TM) system (copyright 1990, Gaussian, Inc.),
 the Gaussian 88(TM) system (copyright 1988, Gaussian, Inc.),
 the Gaussian 86(TM) system (copyright 1986, Carnegie Mellon
 University), and the Gaussian 82(TM) system (copyright 1983,
 Carnegie Mellon University). Gaussian is a federally registered
 trademark of Gaussian, Inc.
  
 This software contains proprietary and confidential information,
 including trade secrets, belonging to Gaussian, Inc.
  
 This software is provided under written license and may be
 used, copied, transmitted, or stored only in accord with that
 written license.
  
 The following legend is applicable only to US Government
 contracts under FAR:
  
                    RESTRICTED RIGHTS LEGEND
  
 Use, reproduction and disclosure by the US Government is
 subject to restrictions as set forth in subparagraphs (a)
 and (c) of the Commercial Computer Software - Restricted
 Rights clause in FAR 52.227-19.
  
 Gaussian, Inc.
 340 Quinnipiac St., Bldg. 40, Wallingford CT 06492
  
  
 ---------------------------------------------------------------
 Warning -- This program may not be used in any manner that
 competes with the business of Gaussian, Inc. or will provide
 assistance to any competitor of Gaussian, Inc.  The licensee
 of this program is prohibited from giving any competitor of
 Gaussian, Inc. access to this program.  By using this program,
 the user acknowledges that Gaussian, Inc. is engaged in the
 business of creating and licensing software in the field of
 computational chemistry and represents and warrants to the
 licensee that it is not a competitor of Gaussian, Inc. and that
 it will not use this program in any manner prohibited above.
 ---------------------------------------------------------------
  

 Cite this work as:
 Gaussian 16, Revision A.03,
 M. J. Frisch, G. W. Trucks, H. B. Schlegel, G. E. Scuseria, 
 M. A. Robb, J. R. Cheeseman, G. Scalmani, V. Barone, 
 G. A. Petersson, H. Nakatsuji, X. Li, M. Caricato, A. V. Marenich, 
 J. Bloino, B. G. Janesko, R. Gomperts, B. Mennucci, H. P. Hratchian, 
 J. V. Ortiz, A. F. Izmaylov, J. L. Sonnenberg, D. Williams-Young, 
 F. Ding, F. Lipparini, F. Egidi, J. Goings, B. Peng, A. Petrone, 
 T. Henderson, D. Ranasinghe, V. G. Zakrzewski, J. Gao, N. Rega, 
 G. Zheng, W. Liang, M. Hada, M. Ehara, K. Toyota, R. Fukuda, 
 J. Hasegawa, M. Ishida, T. Nakajima, Y. Honda, O. Kitao, H. Nakai, 
 T. Vreven, K. Throssell, J. A. Montgomery, Jr., J. E. Peralta, 
 F. Ogliaro, M. J. Bearpark, J. J. Heyd, E. N. Brothers, K. N. Kudin, 
 V. N. Staroverov, T. A. Keith, R. Kobayashi, J. Normand, 
 K. Raghavachari, A. P. Rendell, J. C. Burant, S. S. Iyengar, 
 J. Tomasi, M. Cossi, J. M. Millam, M. Klene, C. Adamo, R. Cammi, 
 J. W. Ochterski, R. L. Martin, K. Morokuma, O. Farkas, 
 J. B. Foresman, and D. J. Fox, Gaussian, Inc., Wallingford CT, 2016.
 
 ******************************************
 Gaussian 16:  ES64L-G16RevA.03 25-Dec-2016
                12-Feb-2025 
 ******************************************
 %chk=clamp-25.chk
 ------------------------------------
 #P MP2/6-311++G** nosymm Density=MP2
 ------------------------------------
 1/30=1,38=1,172=1/1;
 2/12=2,15=1,17=6,18=5,40=1/2;
 3/5=4,6=6,7=1111,11=9,25=1,30=1,71=1/1,2,3;
 4//1;
 5/5=2,38=5/2;
 8/6=4,10=2/1;
 9/15=1,16=-3/6;
 10/5=1,13=10,31=1/2;
 6/7=2,8=2,9=2,10=2,22=2/1;
 99/5=1,9=1/99;
 Leave Link    1 at Wed Feb 12 15:57:01 2025, MaxMem=           0 cpu:               0.0 elap:               0.0
 (Enter /sw/cluster/pub/apps//g16/l101.exe)
 --------
 Clamp-25
 --------
 Symbolic Z-matrix:
 Charge =  0 Multiplicity = 1
 C                     1.41875   0.03507   0. 
 C                     0.73971   1.21108   0. 
 C                    -0.73971   1.21108   0. 
 C                    -1.41875   0.03507   0. 
 C                    -0.67899  -1.24614   0. 
 C                     0.67899  -1.24614   0. 
 H                     2.3995   -0.4223    0. 
 H                     0.83403   2.28913   0. 
 H                    -0.83403   2.28913   0. 
 H                    -2.3995   -0.4223    0. 
 H                    -1.56543  -1.86688   0. 
 H                     1.56543  -1.86688   0. 
 
 ITRead=  0  0  0  0  0  0  0  0  0  0  0  0
 MicOpt= -1 -1 -1 -1 -1 -1 -1 -1 -1 -1 -1 -1
 NAtoms=     12 NQM=       12 NQMF=       0 NMMI=      0 NMMIF=      0
                NMic=       0 NMicF=      0.
                    Isotopes and Nuclear Properties:
 (Nuclear quadrupole moments (NQMom) in fm**2, nuclear magnetic moments (NMagM)
  in nuclear magnetons)

  Atom         1           2           3           4           5           6           7           8           9          10
 IAtWgt=          12          12          12          12          12          12           1           1           1           1
 AtmWgt=  12.0000000  12.0000000  12.0000000  12.0000000  12.0000000  12.0000000   1.0078250   1.0078250   1.0078250   1.0078250
 NucSpn=           0           0           0           0           0           0           1           1           1           1
 AtZEff=  -0.0000000  -0.0000000  -0.0000000  -0.0000000  -0.0000000  -0.0000000  -0.0000000  -0.0000000  -0.0000000  -0.0000000
 NQMom=    0.0000000   0.0000000   0.0000000   0.0000000   0.0000000   0.0000000   0.0000000   0.0000000   0.0000000   0.0000000
 NMagM=    0.0000000   0.0000000   0.0000000   0.0000000   0.0000000   0.0000000   2.7928460   2.7928460   2.7928460   2.7928460
 AtZNuc=   6.0000000   6.0000000   6.0000000   6.0000000   6.0000000   6.0000000   1.0000000   1.0000000   1.0000000   1.0000000

  Atom        11          12
 IAtWgt=           1           1
 AtmWgt=   1.0078250   1.0078250
 NucSpn=           1           1
 AtZEff=  -0.0000000  -0.0000000
 NQMom=    0.0000000   0.0000000
 NMagM=    2.7928460   2.7928460
 AtZNuc=   1.0000000   1.0000000
 Leave Link  101 at Wed Feb 12 15:57:01 2025, MaxMem=   104857600 cpu:               0.0 elap:               0.0
 (Enter /sw/cluster/pub/apps//g16/l202.exe)
                          Input orientation:                          
 ---------------------------------------------------------------------
 Center     Atomic      Atomic             Coordinates (Angstroms)
 Number     Number       Type             X           Y           Z
 ---------------------------------------------------------------------
      1          6           0        1.418750    0.035068    0.000000
      2          6           0        0.739706    1.211085    0.000000
      3          6           0       -0.739706    1.211085    0.000000
      4          6           0       -1.418750    0.035068    0.000000
      5          6           0       -0.678985   -1.246143    0.000000
      6          6           0        0.678985   -1.246143    0.000000
      7          1           0        2.399504   -0.422303    0.000000
      8          1           0        0.834025    2.289132    0.000000
      9          1           0       -0.834025    2.289132    0.000000
     10          1           0       -2.399504   -0.422303    0.000000
     11          1           0       -1.565428   -1.866882    0.000000
     12          1           0        1.565428   -1.866882    0.000000
 ---------------------------------------------------------------------
                    Distance matrix (angstroms):
                    1          2          3          4          5
     1  C    0.000000
     2  C    1.357983   0.000000
     3  C    2.458038   1.479412   0.000000
     4  C    2.837500   2.458038   1.357983   0.000000
     5  C    2.458047   2.837368   2.457978   1.479444   0.000000
     6  C    1.479444   2.457978   2.837368   2.458047   1.357970
     7  H    1.082158   2.328709   3.538728   3.845550   3.186818
     8  H    2.328671   1.082165   1.907568   3.186817   3.845435
     9  H    3.186817   1.907568   1.082165   2.328671   3.538673
    10  H    3.845550   3.538728   2.328709   1.082158   1.907590
    11  H    3.538748   3.845455   3.186801   1.907598   1.082173
    12  H    1.907598   3.186801   3.845455   3.538748   2.328671
                    6          7          8          9         10
     6  C    0.000000
     7  H    1.907590   0.000000
     8  H    3.538673   3.130911   0.000000
     9  H    3.845435   4.219904   1.668050   0.000000
    10  H    3.186818   4.799008   4.219904   3.130911   0.000000
    11  H    2.328671   4.219893   4.798941   4.219882   1.668080
    12  H    1.082173   1.668080   4.219882   4.798941   4.219893
                   11         12
    11  H    0.000000
    12  H    3.130856   0.000000
 Symmetry turned off by external request.
 Stoichiometry    C6H6
 Framework group  C2V[SGV(C6H6)]
 Deg. of freedom    11
 Full point group                 C2V     NOp   4
 Rotational constants (GHZ):           5.5875904           5.5872733           2.7937159
 Leave Link  202 at Wed Feb 12 15:57:01 2025, MaxMem=   104857600 cpu:               0.0 elap:               0.0
 (Enter /sw/cluster/pub/apps//g16/l301.exe)
 Standard basis: 6-311++G(d,p) (5D, 7F)
 Ernie: Thresh=  0.10000D-02 Tol=  0.10000D-05 Strict=F.
   174 basis functions,   270 primitive gaussians,   180 cartesian basis functions
    21 alpha electrons       21 beta electrons
       nuclear repulsion energy       201.9882094910 Hartrees.
 IExCor=    0 DFT=F Ex=HF Corr=None ExCW=0 ScaHFX=  1.000000
 ScaDFX=  1.000000  1.000000  1.000000  1.000000 ScalE2=  1.000000  1.000000
 IRadAn=      5 IRanWt=     -1 IRanGd=            0 ICorTp=0 IEmpDi=  4
 NAtoms=   12 NActive=   12 NUniq=   12 SFac= 1.00D+00 NAtFMM=   60 NAOKFM=F Big=F
 Integral buffers will be    131072 words long.
 Raffenetti 1 integral format.
 Two-electron integral symmetry is turned off.
 Leave Link  301 at Wed Feb 12 15:57:01 2025, MaxMem=   104857600 cpu:               0.0 elap:               0.0
 (Enter /sw/cluster/pub/apps//g16/l302.exe)
 NPDir=0 NMtPBC=     1 NCelOv=     1 NCel=       1 NClECP=     1 NCelD=      1
         NCelK=      1 NCelE2=     1 NClLst=     1 CellRange=     0.0.
 One-electron integrals computed using PRISM.
 NBasis=   174 RedAO= T EigKep=  1.18D-06  NBF=   174
 NBsUse=   174 1.00D-06 EigRej= -1.00D+00 NBFU=   174
 Leave Link  302 at Wed Feb 12 15:57:01 2025, MaxMem=   104857600 cpu:               0.0 elap:               0.0
 (Enter /sw/cluster/pub/apps//g16/l303.exe)
 DipDrv:  MaxL=1.
 Leave Link  303 at Wed Feb 12 15:57:01 2025, MaxMem=   104857600 cpu:               0.0 elap:               0.0
 (Enter /sw/cluster/pub/apps//g16/l401.exe)
 ExpMin= 3.60D-02 ExpMax= 4.56D+03 ExpMxC= 6.82D+02 IAcc=3 IRadAn=         5 AccDes= 0.00D+00
 Harris functional with IExCor=  205 and IRadAn=       5 diagonalized for initial guess.
 HarFok:  IExCor=  205 AccDes= 0.00D+00 IRadAn=         5 IDoV= 1 UseB2=F ITyADJ=14
 ICtDFT=  3500011 ScaDFX=  1.000000  1.000000  1.000000  1.000000
 FoFCou: FMM=F IPFlag=           0 FMFlag=      100000 FMFlg1=           0
         NFxFlg=           0 DoJE=T BraDBF=F KetDBF=T FulRan=T
         wScrn=  0.000000 ICntrl=       500 IOpCl=  0 I1Cent=   200000004 NGrid=           0
         NMat0=    1 NMatS0=      1 NMatT0=    0 NMatD0=    1 NMtDS0=    0 NMtDT0=    0
 Symmetry not used in FoFCou.
 Harris En= -231.006138278743    
 JPrj=0 DoOrth=F DoCkMO=F.
 Leave Link  401 at Wed Feb 12 15:57:02 2025, MaxMem=   104857600 cpu:               0.7 elap:               0.7
 (Enter /sw/cluster/pub/apps//g16/l502.exe)
 Two-electron integral symmetry not used.
 Closed shell SCF:
 Using DIIS extrapolation, IDIIS=  1040.
 NGot=   104857600 LenX=   104790300 LenY=   104757459
 Requested convergence on RMS density matrix=1.00D-08 within 128 cycles.
 Requested convergence on MAX density matrix=1.00D-06.
 Requested convergence on             energy=1.00D-06.
 No special actions if energy rises.
 Fock matrices will be formed incrementally for  20 cycles.

 Cycle   1  Pass 0  IDiag  1:
 FoFJK:  IHMeth= 1 ICntrl=       0 DoSepK=F KAlg= 0 I1Cent=           0 FoldK=F
 IRaf= 990000000 NMat=       1 IRICut=       1 DoRegI=T DoRafI=F ISym2E= 0 IDoP0=0 IntGTp=1.
 FoFCou: FMM=F IPFlag=           0 FMFlag=      100000 FMFlg1=           0
         NFxFlg=           0 DoJE=F BraDBF=F KetDBF=F FulRan=T
         wScrn=  0.000000 ICntrl=         0 IOpCl=  0 I1Cent=           0 NGrid=           0
         NMat0=    1 NMatS0=      1 NMatT0=    0 NMatD0=    1 NMtDS0=    0 NMtDT0=    0
 Symmetry not used in FoFCou.
 E= -230.322916225268    
 DIIS: error= 5.16D-02 at cycle   1 NSaved=   1.
 NSaved= 1 IEnMin= 1 EnMin= -230.322916225268     IErMin= 1 ErrMin= 5.16D-02
 ErrMax= 5.16D-02  0.00D+00 EMaxC= 1.00D-01 BMatC= 4.89D-01 BMatP= 4.89D-01
 IDIUse=3 WtCom= 4.84D-01 WtEn= 5.16D-01
 Coeff-Com:  0.100D+01
 Coeff-En:   0.100D+01
 Coeff:      0.100D+01
 Gap=     0.473 Goal=   None    Shift=    0.000
 GapD=    0.473 DampG=2.000 DampE=0.500 DampFc=1.0000 IDamp=-1.
 RMSDP=6.17D-03 MaxDP=1.40D-01              OVMax= 1.50D-01

 Cycle   2  Pass 0  IDiag  1:
 RMSU=  5.90D-03    CP:  1.06D+00
 E= -230.559857012007     Delta-E=       -0.236940786739 Rises=F Damp=F
 DIIS: error= 2.42D-02 at cycle   2 NSaved=   2.
 NSaved= 2 IEnMin= 2 EnMin= -230.559857012007     IErMin= 2 ErrMin= 2.42D-02
 ErrMax= 2.42D-02  0.00D+00 EMaxC= 1.00D-01 BMatC= 4.45D-02 BMatP= 4.89D-01
 IDIUse=3 WtCom= 7.58D-01 WtEn= 2.42D-01
 Coeff-Com:  0.150D+00 0.850D+00
 Coeff-En:   0.000D+00 0.100D+01
 Coeff:      0.114D+00 0.886D+00
 Gap=     0.420 Goal=   None    Shift=    0.000
 RMSDP=3.74D-03 MaxDP=9.14D-02 DE=-2.37D-01 OVMax= 5.45D-02

 Cycle   3  Pass 0  IDiag  1:
 RMSU=  3.58D-03    CP:  1.02D+00  9.84D-01
 E= -230.598841269387     Delta-E=       -0.038984257379 Rises=F Damp=F
 DIIS: error= 7.36D-03 at cycle   3 NSaved=   3.
 NSaved= 3 IEnMin= 3 EnMin= -230.598841269387     IErMin= 3 ErrMin= 7.36D-03
 ErrMax= 7.36D-03  0.00D+00 EMaxC= 1.00D-01 BMatC= 5.04D-03 BMatP= 4.45D-02
 IDIUse=3 WtCom= 9.26D-01 WtEn= 7.36D-02
 Coeff-Com: -0.204D-01 0.223D+00 0.798D+00
 Coeff-En:   0.000D+00 0.000D+00 0.100D+01
 Coeff:     -0.189D-01 0.206D+00 0.813D+00
 Gap=     0.383 Goal=   None    Shift=    0.000
 RMSDP=1.01D-03 MaxDP=2.40D-02 DE=-3.90D-02 OVMax= 1.47D-02

 Cycle   4  Pass 0  IDiag  1:
 RMSU=  4.89D-04    CP:  1.04D+00  1.10D+00  1.00D+00
 E= -230.603841295858     Delta-E=       -0.005000026471 Rises=F Damp=F
 DIIS: error= 1.01D-03 at cycle   4 NSaved=   4.
 NSaved= 4 IEnMin= 4 EnMin= -230.603841295858     IErMin= 4 ErrMin= 1.01D-03
 ErrMax= 1.01D-03  0.00D+00 EMaxC= 1.00D-01 BMatC= 4.36D-05 BMatP= 5.04D-03
 IDIUse=3 WtCom= 9.90D-01 WtEn= 1.01D-02
 Coeff-Com: -0.126D-02-0.218D-01-0.143D-01 0.104D+01
 Coeff-En:   0.000D+00 0.000D+00 0.000D+00 0.100D+01
 Coeff:     -0.125D-02-0.215D-01-0.141D-01 0.104D+01
 Gap=     0.383 Goal=   None    Shift=    0.000
 RMSDP=2.90D-04 MaxDP=9.57D-03 DE=-5.00D-03 OVMax= 4.19D-03

 Cycle   5  Pass 0  IDiag  1:
 RMSU=  7.88D-05    CP:  1.04D+00  1.13D+00  1.05D+00  1.19D+00
 E= -230.603955352413     Delta-E=       -0.000114056556 Rises=F Damp=F
 DIIS: error= 5.31D-04 at cycle   5 NSaved=   5.
 NSaved= 5 IEnMin= 5 EnMin= -230.603955352413     IErMin= 5 ErrMin= 5.31D-04
 ErrMax= 5.31D-04  0.00D+00 EMaxC= 1.00D-01 BMatC= 5.26D-06 BMatP= 4.36D-05
 IDIUse=3 WtCom= 9.95D-01 WtEn= 5.31D-03
 Coeff-Com:  0.138D-02-0.917D-02-0.470D-01-0.265D+00 0.132D+01
 Coeff-En:   0.000D+00 0.000D+00 0.000D+00 0.000D+00 0.100D+01
 Coeff:      0.138D-02-0.913D-02-0.468D-01-0.263D+00 0.132D+01
 Gap=     0.384 Goal=   None    Shift=    0.000
 RMSDP=8.11D-05 MaxDP=2.45D-03 DE=-1.14D-04 OVMax= 3.43D-03

 Cycle   6  Pass 0  IDiag  1:
 RMSU=  2.67D-05    CP:  1.04D+00  1.13D+00  1.07D+00  1.24D+00  1.40D+00
 E= -230.603985005776     Delta-E=       -0.000029653363 Rises=F Damp=F
 DIIS: error= 2.54D-04 at cycle   6 NSaved=   6.
 NSaved= 6 IEnMin= 6 EnMin= -230.603985005776     IErMin= 6 ErrMin= 2.54D-04
 ErrMax= 2.54D-04  0.00D+00 EMaxC= 1.00D-01 BMatC= 7.56D-07 BMatP= 5.26D-06
 IDIUse=3 WtCom= 9.97D-01 WtEn= 2.54D-03
 Coeff-Com: -0.934D-03 0.847D-02 0.370D-01 0.130D+00-0.102D+01 0.184D+01
 Coeff-En:   0.000D+00 0.000D+00 0.000D+00 0.000D+00 0.000D+00 0.100D+01
 Coeff:     -0.931D-03 0.845D-02 0.369D-01 0.130D+00-0.102D+01 0.184D+01
 Gap=     0.384 Goal=   None    Shift=    0.000
 RMSDP=3.20D-05 MaxDP=5.26D-04 DE=-2.97D-05 OVMax= 2.36D-03

 Cycle   7  Pass 0  IDiag  1:
 RMSU=  1.31D-05    CP:  1.04D+00  1.13D+00  1.07D+00  1.22D+00  1.56D+00
                    CP:  1.79D+00
 E= -230.603991868647     Delta-E=       -0.000006862871 Rises=F Damp=F
 DIIS: error= 6.42D-05 at cycle   7 NSaved=   7.
 NSaved= 7 IEnMin= 7 EnMin= -230.603991868647     IErMin= 7 ErrMin= 6.42D-05
 ErrMax= 6.42D-05  0.00D+00 EMaxC= 1.00D-01 BMatC= 5.77D-08 BMatP= 7.56D-07
 IDIUse=1 WtCom= 1.00D+00 WtEn= 0.00D+00
 Coeff-Com:  0.103D-03-0.138D-02-0.639D-02-0.126D-01 0.188D+00-0.658D+00
 Coeff-Com:  0.149D+01
 Coeff:      0.103D-03-0.138D-02-0.639D-02-0.126D-01 0.188D+00-0.658D+00
 Coeff:      0.149D+01
 Gap=     0.384 Goal=   None    Shift=    0.000
 RMSDP=1.42D-05 MaxDP=4.39D-04 DE=-6.86D-06 OVMax= 7.44D-04

 Cycle   8  Pass 0  IDiag  1:
 RMSU=  3.21D-06    CP:  1.04D+00  1.13D+00  1.07D+00  1.23D+00  1.58D+00
                    CP:  1.90D+00  1.62D+00
 E= -230.603992352777     Delta-E=       -0.000000484130 Rises=F Damp=F
 DIIS: error= 4.18D-06 at cycle   8 NSaved=   8.
 NSaved= 8 IEnMin= 8 EnMin= -230.603992352777     IErMin= 8 ErrMin= 4.18D-06
 ErrMax= 4.18D-06  0.00D+00 EMaxC= 1.00D-01 BMatC= 8.86D-10 BMatP= 5.77D-08
 IDIUse=1 WtCom= 1.00D+00 WtEn= 0.00D+00
 Coeff-Com:  0.148D-04-0.669D-04-0.203D-03-0.207D-02 0.414D-02 0.365D-01
 Coeff-Com: -0.226D+00 0.119D+01
 Coeff:      0.148D-04-0.669D-04-0.203D-03-0.207D-02 0.414D-02 0.365D-01
 Coeff:     -0.226D+00 0.119D+01
 Gap=     0.384 Goal=   None    Shift=    0.000
 RMSDP=2.74D-06 MaxDP=8.42D-05 DE=-4.84D-07 OVMax= 5.33D-05

 Initial convergence to 1.0D-05 achieved.  Increase integral accuracy.
 Cycle   9  Pass 1  IDiag  1:
 E= -230.603992356296     Delta-E=       -0.000000003519 Rises=F Damp=F
 DIIS: error= 6.39D-07 at cycle   1 NSaved=   1.
 NSaved= 1 IEnMin= 1 EnMin= -230.603992356296     IErMin= 1 ErrMin= 6.39D-07
 ErrMax= 6.39D-07  0.00D+00 EMaxC= 1.00D-01 BMatC= 3.34D-11 BMatP= 3.34D-11
 IDIUse=1 WtCom= 1.00D+00 WtEn= 0.00D+00
 Coeff-Com:  0.100D+01
 Coeff:      0.100D+01
 Gap=     0.384 Goal=   None    Shift=    0.000
 RMSDP=2.74D-06 MaxDP=8.42D-05 DE=-3.52D-09 OVMax= 2.75D-06

 Cycle  10  Pass 1  IDiag  1:
 RMSU=  4.11D-07    CP:  1.00D+00
 E= -230.603992356361     Delta-E=       -0.000000000065 Rises=F Damp=F
 DIIS: error= 2.64D-07 at cycle   2 NSaved=   2.
 NSaved= 2 IEnMin= 2 EnMin= -230.603992356361     IErMin= 2 ErrMin= 2.64D-07
 ErrMax= 2.64D-07  0.00D+00 EMaxC= 1.00D-01 BMatC= 5.94D-12 BMatP= 3.34D-11
 IDIUse=1 WtCom= 1.00D+00 WtEn= 0.00D+00
 Coeff-Com:  0.627D-01 0.937D+00
 Coeff:      0.627D-01 0.937D+00
 Gap=     0.384 Goal=   None    Shift=    0.000
 RMSDP=1.28D-07 MaxDP=4.15D-06 DE=-6.48D-11 OVMax= 1.04D-06

 Cycle  11  Pass 1  IDiag  1:
 RMSU=  3.53D-08    CP:  1.00D+00  1.27D+00
 E= -230.603992356371     Delta-E=       -0.000000000010 Rises=F Damp=F
 DIIS: error= 1.36D-07 at cycle   3 NSaved=   3.
 NSaved= 3 IEnMin= 3 EnMin= -230.603992356371     IErMin= 3 ErrMin= 1.36D-07
 ErrMax= 1.36D-07  0.00D+00 EMaxC= 1.00D-01 BMatC= 1.37D-12 BMatP= 5.94D-12
 IDIUse=1 WtCom= 1.00D+00 WtEn= 0.00D+00
 Coeff-Com: -0.185D+00 0.183D+00 0.100D+01
 Coeff:     -0.185D+00 0.183D+00 0.100D+01
 Gap=     0.384 Goal=   None    Shift=    0.000
 RMSDP=7.43D-08 MaxDP=1.95D-06 DE=-1.02D-11 OVMax= 6.30D-07

 Cycle  12  Pass 1  IDiag  1:
 RMSU=  9.42D-09    CP:  1.00D+00  1.43D+00  1.01D+00
 E= -230.603992356375     Delta-E=       -0.000000000004 Rises=F Damp=F
 DIIS: error= 4.17D-08 at cycle   4 NSaved=   4.
 NSaved= 4 IEnMin= 4 EnMin= -230.603992356375     IErMin= 4 ErrMin= 4.17D-08
 ErrMax= 4.17D-08  0.00D+00 EMaxC= 1.00D-01 BMatC= 4.68D-14 BMatP= 1.37D-12
 IDIUse=1 WtCom= 1.00D+00 WtEn= 0.00D+00
 Coeff-Com: -0.323D-01-0.168D-01 0.165D+00 0.884D+00
 Coeff:     -0.323D-01-0.168D-01 0.165D+00 0.884D+00
 Gap=     0.384 Goal=   None    Shift=    0.000
 RMSDP=4.74D-09 MaxDP=6.94D-08 DE=-3.92D-12 OVMax= 1.65D-07

 SCF Done:  E(RHF) =  -230.603992356     A.U. after   12 cycles
            NFock= 12  Conv=0.47D-08     -V/T= 2.0012
 KE= 2.303224734174D+02 PE=-9.402581373037D+02 EE= 2.773434620390D+02
 Leave Link  502 at Wed Feb 12 15:57:10 2025, MaxMem=   104857600 cpu:               8.8 elap:               8.8
 (Enter /sw/cluster/pub/apps//g16/l801.exe)
 ExpMin= 3.60D-02 ExpMax= 4.56D+03 ExpMxC= 6.82D+02 IAcc=3 IRadAn=         5 AccDes= 0.00D+00
 HarFok:  IExCor=  205 AccDes= 0.00D+00 IRadAn=         5 IDoV=-2 UseB2=F ITyADJ=14
 ICtDFT= 12500011 ScaDFX=  1.000000  1.000000  1.000000  1.000000
 Largest valence mixing into a core orbital is  1.47D-04
 Largest core mixing into a valence orbital is  3.65D-05
 Range of M.O.s used for correlation:     7   174
 NBasis=   174 NAE=    21 NBE=    21 NFC=     6 NFV=     0
 NROrb=    168 NOA=    15 NOB=    15 NVA=   153 NVB=   153

 **** Warning!!: The largest alpha MO coefficient is  0.22138210D+03

 Leave Link  801 at Wed Feb 12 15:57:11 2025, MaxMem=   104857600 cpu:               0.2 elap:               0.2
 (Enter /sw/cluster/pub/apps//g16/l906.exe)
 Frozen-core derivative calculation, NFC=   6 NFV=   0.
 FulOut=F Deriv=T AODrv=F NAtomX=    12
   MMem=          34  MDisk=          15 MDiskD=          15
  W3Min=      657720 MinDsk=     1009670 NBas6D=         180
 NBas2D=       16542    NTT=       16290    LW2=     2040000
    MDV=   104496001 MDiskM=        7908 NBas2p=       16479
 Fully direct method using O(ONN) memory.
 IMap=   1   2   3   4   5   6   7   8   9  10  11  12  13  14  15  16  17  18  19  20
 IMap=  21
 JobTyp=1 Pass  1:  I=   7 to  21 NPSUse=  1 ParTrn=F ParDer=F DoDerP=T.
 Spin components of T(2) and E(2):
     alpha-alpha T2 =       0.4416166882D-01 E2=     -0.1103326165D+00
     alpha-beta  T2 =       0.2331709677D+00 E2=     -0.6259756183D+00
     beta-beta   T2 =       0.4416166882D-01 E2=     -0.1103326165D+00
 The integrals were generated   1 times.
 ANorm=    0.1149562658D+01
 E2 =    -0.8466408514D+00 EUMP2 =    -0.23145063320777D+03
 Leave Link  906 at Wed Feb 12 15:57:15 2025, MaxMem=   104857600 cpu:               4.8 elap:               4.8
 (Enter /sw/cluster/pub/apps//g16/l1002.exe)
 Minotr:  Closed shell wavefunction.
          Computing MP2/KS-MP2 derivatives.
          Using Z-Vector for PSCF gradient.
          Skipping F1 and S1 gradient terms here.
          Frozen-core window.
          Direct CPHF calculation.
          Differentiating once with respect to electric field.
                with respect to dipole field.
          Electric field/nuclear overlap derivatives assumed to be zero.
          Requested convergence is 1.0D-10 RMS, and 1.0D-09 maximum.
          NewPWx=F KeepS1=T KeepF1=T KeepIn=T MapXYZ=F SortEE=F KeepMc=T.
 Two-electron integral symmetry not used.
          MDV=     104857600 using IRadAn=       5.
          Solving linear equations separately, MaxMat=     384.
          There are     1 degrees of freedom in the 1st order CPHF.  IDoFFX=0 NUNeed=     1.
 FoFJK:  IHMeth= 1 ICntrl=       0 DoSepK=F KAlg= 0 I1Cent=           0 FoldK=F
 IRaf= 990000000 NMat=       1 IRICut=       1 DoRegI=T DoRafI=F ISym2E= 0 IDoP0=0 IntGTp=1.
 FoFCou: FMM=F IPFlag=           0 FMFlag=      100000 FMFlg1=           0
         NFxFlg=           0 DoJE=F BraDBF=F KetDBF=F FulRan=T
         wScrn=  0.000000 ICntrl=         0 IOpCl=  0 I1Cent=           0 NGrid=           0
         NMat0=    1 NMatS0=      1 NMatT0=    0 NMatD0=    1 NMtDS0=    0 NMtDT0=    0
 Symmetry not used in FoFCou.
 LinEq1:  Iter=  0 NonCon=     1 RMS=3.95D-03 Max=7.46D-02 NDo=     1
 AX will form     1 AO Fock derivatives at one time.
 LinEq1:  Iter=  1 NonCon=     1 RMS=1.05D-03 Max=2.15D-02 NDo=     1
 LinEq1:  Iter=  2 NonCon=     1 RMS=4.52D-04 Max=9.36D-03 NDo=     1
 LinEq1:  Iter=  3 NonCon=     1 RMS=1.21D-04 Max=1.83D-03 NDo=     1
 LinEq1:  Iter=  4 NonCon=     1 RMS=2.59D-05 Max=4.38D-04 NDo=     1
 LinEq1:  Iter=  5 NonCon=     1 RMS=2.99D-06 Max=5.53D-05 NDo=     1
 LinEq1:  Iter=  6 NonCon=     1 RMS=2.75D-07 Max=2.95D-06 NDo=     1
 LinEq1:  Iter=  7 NonCon=     1 RMS=5.32D-08 Max=6.29D-07 NDo=     1
 LinEq1:  Iter=  8 NonCon=     1 RMS=8.68D-09 Max=1.27D-07 NDo=     1
 LinEq1:  Iter=  9 NonCon=     1 RMS=2.29D-09 Max=4.68D-08 NDo=     1
 LinEq1:  Iter= 10 NonCon=     1 RMS=7.13D-10 Max=7.99D-09 NDo=     1
 LinEq1:  Iter= 11 NonCon=     1 RMS=1.56D-10 Max=2.54D-09 NDo=     1
 LinEq1:  Iter= 12 NonCon=     0 RMS=5.15D-11 Max=4.99D-10 NDo=     1
 Linear equations converged to 1.000D-10 1.000D-09 after    12 iterations.
 End of Minotr F.D. properties file   721 does not exist.
 End of Minotr F.D. properties file   722 does not exist.
 End of Minotr F.D. properties file   788 does not exist.
 Leave Link 1002 at Wed Feb 12 15:57:27 2025, MaxMem=   104857600 cpu:              11.7 elap:              11.7
 (Enter /sw/cluster/pub/apps//g16/l601.exe)
 Copying SCF densities to generalized density rwf, IOpCl= 0 IROHF=0.

 **********************************************************************

            Population analysis using the MP2 density.

 **********************************************************************

 Alpha  occ. eigenvalues --  -11.24991 -11.24944 -11.24944 -11.24817 -11.24817
 Alpha  occ. eigenvalues --  -11.24767  -1.14793  -1.02423  -1.02423  -0.84159
 Alpha  occ. eigenvalues --   -0.84158  -0.74862  -0.62868  -0.59681  -0.58797
 Alpha  occ. eigenvalues --   -0.58796  -0.49760  -0.46015  -0.46013  -0.34205
 Alpha  occ. eigenvalues --   -0.34205
 Alpha virt. eigenvalues --    0.04165   0.04897   0.04897   0.06717   0.06717
 Alpha virt. eigenvalues --    0.08949   0.10188   0.10189   0.12867   0.15048
 Alpha virt. eigenvalues --    0.15317   0.15317   0.16135   0.16823   0.16823
 Alpha virt. eigenvalues --    0.18888   0.18888   0.18996   0.20892   0.21322
 Alpha virt. eigenvalues --    0.21323   0.21584   0.21584   0.22222   0.22491
 Alpha virt. eigenvalues --    0.22491   0.24940   0.24940   0.28523   0.28523
 Alpha virt. eigenvalues --    0.29797   0.32415   0.33613   0.34477   0.34477
 Alpha virt. eigenvalues --    0.35568   0.43558   0.43560   0.44993   0.47867
 Alpha virt. eigenvalues --    0.47867   0.52032   0.52033   0.58488   0.65242
 Alpha virt. eigenvalues --    0.69062   0.71141   0.73878   0.73879   0.75140
 Alpha virt. eigenvalues --    0.75501   0.75502   0.75732   0.75732   0.79190
 Alpha virt. eigenvalues --    0.81519   0.81519   0.88106   0.88649   0.88649
 Alpha virt. eigenvalues --    0.95567   0.95567   0.95889   1.00691   1.00691
 Alpha virt. eigenvalues --    1.01249   1.04829   1.06490   1.06490   1.14556
 Alpha virt. eigenvalues --    1.14608   1.14609   1.16007   1.20781   1.20781
 Alpha virt. eigenvalues --    1.23482   1.30825   1.30826   1.35261   1.40877
 Alpha virt. eigenvalues --    1.40878   1.52821   1.60721   1.68482   1.68484
 Alpha virt. eigenvalues --    1.74274   1.75204   1.75205   1.79824   1.90322
 Alpha virt. eigenvalues --    1.90326   1.96167   1.96167   1.97908   2.04764
 Alpha virt. eigenvalues --    2.04765   2.04887   2.04890   2.14208   2.14208
 Alpha virt. eigenvalues --    2.14472   2.17870   2.20899   2.20899   2.33133
 Alpha virt. eigenvalues --    2.39999   2.40000   2.42909   2.46439   2.46440
 Alpha virt. eigenvalues --    2.50705   2.50706   2.69532   2.75533   2.80136
 Alpha virt. eigenvalues --    2.80141   2.84748   2.90498   2.92817   2.92818
 Alpha virt. eigenvalues --    3.04733   3.09839   3.09839   3.18764   3.18765
 Alpha virt. eigenvalues --    3.24700   3.24700   3.26394   3.29579   3.29579
 Alpha virt. eigenvalues --    3.38214   3.38214   3.45260   3.45766   3.55196
 Alpha virt. eigenvalues --    3.64447   3.64451   3.76237   3.94627   3.94671
 Alpha virt. eigenvalues --    3.94672   4.29897   4.29898   4.50741   4.52394
 Alpha virt. eigenvalues --    4.52394   5.18710  24.68204  25.01610  25.01615
 Alpha virt. eigenvalues --   25.46577  25.46579  25.51703
          Condensed to atoms (all electrons):
               1          2          3          4          5          6
     1  C    8.895445  -3.136155   1.563980  -1.646252   1.564305  -1.339488
     2  C   -3.136155   8.895099  -1.339065   1.563980  -1.646270   1.564120
     3  C    1.563980  -1.339065   8.895099  -3.136155   1.564120  -1.646270
     4  C   -1.646252   1.563980  -3.136155   8.895445  -1.339488   1.564305
     5  C    1.564305  -1.646270   1.564120  -1.339488   8.895715  -3.136606
     6  C   -1.339488   1.564120  -1.646270   1.564305  -3.136606   8.895715
     7  H    0.465534  -0.156478   0.023796  -0.007090   0.097172  -0.160148
     8  H   -0.156482   0.465534  -0.160169   0.097172  -0.007096   0.023809
     9  H    0.097172  -0.160169   0.465534  -0.156482   0.023809  -0.007096
    10  H   -0.007090   0.023796  -0.156478   0.465534  -0.160148   0.097172
    11  H    0.023817  -0.007096   0.097170  -0.160204   0.465561  -0.156487
    12  H   -0.160204   0.097170  -0.007096   0.023817  -0.156487   0.465561
               7          8          9         10         11         12
     1  C    0.465534  -0.156482   0.097172  -0.007090   0.023817  -0.160204
     2  C   -0.156478   0.465534  -0.160169   0.023796  -0.007096   0.097170
     3  C    0.023796  -0.160169   0.465534  -0.156478   0.097170  -0.007096
     4  C   -0.007090   0.097172  -0.156482   0.465534  -0.160204   0.023817
     5  C    0.097172  -0.007096   0.023809  -0.160148   0.465561  -0.156487
     6  C   -0.160148   0.023809  -0.007096   0.097172  -0.156487   0.465561
     7  H    0.615807  -0.009881  -0.000562   0.000523  -0.000562  -0.032651
     8  H   -0.009881   0.615829  -0.032658  -0.000562   0.000523  -0.000562
     9  H   -0.000562  -0.032658   0.615829  -0.009881  -0.000562   0.000523
    10  H    0.000523  -0.000562  -0.009881   0.615807  -0.032651  -0.000562
    11  H   -0.000562   0.000523  -0.000562  -0.032651   0.615820  -0.009882
    12  H   -0.032651  -0.000562   0.000523  -0.000562  -0.009882   0.615820
 Mulliken charges:
               1
     1  C   -0.164581
     2  C   -0.164467
     3  C   -0.164467
     4  C   -0.164581
     5  C   -0.164586
     6  C   -0.164586
     7  H    0.164541
     8  H    0.164541
     9  H    0.164541
    10  H    0.164541
    11  H    0.164552
    12  H    0.164552
 Sum of Mulliken charges =  -0.00000
 Mulliken charges with hydrogens summed into heavy atoms:
               1
     1  C   -0.000040
     2  C    0.000075
     3  C    0.000075
     4  C   -0.000040
     5  C   -0.000034
     6  C   -0.000034
 Electronic spatial extent (au):  <R**2>=            466.6376
 Charge=             -0.0000 electrons
 Dipole moment (field-independent basis, Debye):
    X=              0.0000    Y=             -0.0001    Z=             -0.0000  Tot=              0.0001
 Quadrupole moment (field-independent basis, Debye-Ang):
   XX=            -33.6616   YY=            -33.6624   ZZ=            -41.0096
   XY=              0.0000   XZ=              0.0000   YZ=             -0.0000
 Traceless Quadrupole moment (field-independent basis, Debye-Ang):
   XX=              2.4496   YY=              2.4488   ZZ=             -4.8984
   XY=              0.0000   XZ=              0.0000   YZ=             -0.0000
 Octapole moment (field-independent basis, Debye-Ang**2):
  XXX=             -0.0000  YYY=             10.1245  ZZZ=             -0.0000  XYY=              0.0000
  XXY=            -10.1255  XXZ=              0.0000  XZZ=              0.0000  YZZ=              0.0001
  YYZ=             -0.0000  XYZ=              0.0000
 Hexadecapole moment (field-independent basis, Debye-Ang**3):
 XXXX=           -297.7616 YYYY=           -297.7550 ZZZZ=            -51.7348 XXXY=              0.0000
 XXXZ=              0.0000 YYYX=             -0.0000 YYYZ=             -0.0000 ZZZX=              0.0000
 ZZZY=              0.0000 XXYY=            -99.2528 XXZZ=            -67.4849 YYZZ=            -67.4827
 XXYZ=              0.0000 YYXZ=              0.0000 ZZXY=              0.0000
 N-N= 2.019882094910D+02 E-N=-9.411408348290D+02  KE= 2.313824948834D+02
 No NMR shielding tensors so no spin-rotation constants.
 Leave Link  601 at Wed Feb 12 15:57:27 2025, MaxMem=   104857600 cpu:               0.0 elap:               0.0
 (Enter /sw/cluster/pub/apps//g16/l9999.exe)
 1\1\GINC-N02\SP\RMP2-FC\6-311++G(d,p)\C6H6\UNKNOWN\12-Feb-2025\0\\#P M
 P2/6-311++G** nosymm Density=MP2\\Clamp-25\\0,1\C,0,1.41875011,0.03506
 767,0.\C,0,0.73970606,1.21108476,0.\C,0,-0.73970606,1.21108476,0.\C,0,
 -1.41875011,0.03506767,0.\C,0,-0.67898505,-1.24614343,0.\C,0,0.6789850
 5,-1.24614343,0.\H,0,2.39950418,-0.42230337,0.\H,0,0.83402506,2.289131
 84,0.\H,0,-0.83402506,2.28913184,0.\H,0,-2.39950418,-0.42230337,0.\H,0
 ,-1.56542812,-1.86688247,0.\H,0,1.56542812,-1.86688247,0.\\Version=ES6
 4L-G16RevA.03\HF=-230.6039924\MP2=-231.4506332\RMSD=4.742e-09\Dipole=0
 .,-0.0000271,0.\Quadrupole=1.8212403,1.8206357,-3.6418759,0.,0.,0.\PG=
 C02V [SGV(C6H6)]\\@


 THESE ARE THE TIMES THAT TRY MENS SOULS.
 THE SUMMER SOLDIER AND THE SUNSHINE PATRIOT WILL IN THIS CRISIS,
 SHRINK FROM THE SERVICE OF HIS COUNTRY.  BUT HE THAT STANDS NOW,
 DESERVES THE LOVE AND THANKS OF MAN AND WOMAN.
 TYRANNY, LIKE HELL, IS NOT EASILY CONQUERED,
 YET WE HAVE THIS CONSOLATION WITH US,
 THAT THE HARDER THE CONFLICT, THE MORE GLORIOUS THE TRIUMPH.
 WHAT WE OBTAIN TOO CHEAP, WE ESTEEM TOO LIGHTLY, 
 'TIS DEARNESS ONLY THAT GIVES EVERYTHING ITS VALUE.

                                              -- TOM PAINE
 Job cpu time:       0 days  0 hours  0 minutes 26.2 seconds.
 Elapsed time:       0 days  0 hours  0 minutes 26.3 seconds.
 File lengths (MBytes):  RWF=     20 Int=      0 D2E=      0 Chk=      4 Scr=      1
 Normal termination of Gaussian 16 at Wed Feb 12 15:57:27 2025.
