Clamp-25                                                                
SP        RMP2-FC                                                     6-311++G(d,p)       
Number of atoms                            I               12
Info1-9                                    I   N=           9
          19          19           0           0           0         110
           1           2           1
Full Title                                 C   N=           1
Clamp-25    
Route                                      C   N=           3
#P MP2/6-311++G** nosymm Density=MP2
Charge                                     I                0
Multiplicity                               I                1
Number of electrons                        I               42
Number of alpha electrons                  I               21
Number of beta electrons                   I               21
Number of basis functions                  I              174
Number of independent functions            I              174
Number of point charges in /Mol/           I                0
Number of translation vectors              I                0
Atomic numbers                             I   N=          12
           6           6           6           6           6           6
           1           1           1           1           1           1
Nuclear charges                            R   N=          12
  6.00000000E+00  6.00000000E+00  6.00000000E+00  6.00000000E+00  6.00000000E+00
  6.00000000E+00  1.00000000E+00  1.00000000E+00  1.00000000E+00  1.00000000E+00
  1.00000000E+00  1.00000000E+00
Current cartesian coordinates              R   N=          36
  2.68104915E+00  6.62682921E-02  0.00000000E+00  1.39784187E+00  2.28861851E+00
  0.00000000E+00 -1.39784187E+00  2.28861851E+00  0.00000000E+00 -2.68104915E+00
  6.62682921E-02  0.00000000E+00 -1.28309579E+00 -2.35486979E+00  0.00000000E+00
  1.28309579E+00 -2.35486979E+00  0.00000000E+00  4.53440573E+00 -7.98037711E-01
  0.00000000E+00  1.57607894E+00  4.32583224E+00  0.00000000E+00 -1.57607894E+00
  4.32583224E+00  0.00000000E+00 -4.53440573E+00 -7.98037711E-01  0.00000000E+00
 -2.95823041E+00 -3.52789658E+00  0.00000000E+00  2.95823041E+00 -3.52789658E+00
  0.00000000E+00
Number of symbols in /Mol/                 I                0
Force Field                                I                0
Atom Types                                 C   N=          12
                                                            
                                                            
                        
Int Atom Types                             I   N=          12
           0           0           0           0           0           0
           0           0           0           0           0           0
MM charges                                 R   N=          12
  0.00000000E+00  0.00000000E+00  0.00000000E+00  0.00000000E+00  0.00000000E+00
  0.00000000E+00  0.00000000E+00  0.00000000E+00  0.00000000E+00  0.00000000E+00
  0.00000000E+00  0.00000000E+00
Integer atomic weights                     I   N=          12
          12          12          12          12          12          12
           1           1           1           1           1           1
Real atomic weights                        R   N=          12
  1.20000000E+01  1.20000000E+01  1.20000000E+01  1.20000000E+01  1.20000000E+01
  1.20000000E+01  1.00782504E+00  1.00782504E+00  1.00782504E+00  1.00782504E+00
  1.00782504E+00  1.00782504E+00
Atom fragment info                         I   N=          12
           0           0           0           0           0           0
           0           0           0           0           0           0
Atom residue num                           I   N=          12
           0           0           0           0           0           0
           0           0           0           0           0           0
Nuclear spins                              I   N=          12
           0           0           0           0           0           0
           1           1           1           1           1           1
Nuclear ZEff                               R   N=          12
 -3.60000000E+00 -3.60000000E+00 -3.60000000E+00 -3.60000000E+00 -3.60000000E+00
 -3.60000000E+00 -1.00000000E+00 -1.00000000E+00 -1.00000000E+00 -1.00000000E+00
 -1.00000000E+00 -1.00000000E+00
Nuclear ZNuc                               R   N=          12
  6.00000000E+00  6.00000000E+00  6.00000000E+00  6.00000000E+00  6.00000000E+00
  6.00000000E+00  1.00000000E+00  1.00000000E+00  1.00000000E+00  1.00000000E+00
  1.00000000E+00  1.00000000E+00
Nuclear QMom                               R   N=          12
  0.00000000E+00  0.00000000E+00  0.00000000E+00  0.00000000E+00  0.00000000E+00
  0.00000000E+00  0.00000000E+00  0.00000000E+00  0.00000000E+00  0.00000000E+00
  0.00000000E+00  0.00000000E+00
Nuclear GFac                               R   N=          12
  0.00000000E+00  0.00000000E+00  0.00000000E+00  0.00000000E+00  0.00000000E+00
  0.00000000E+00  2.79284600E+00  2.79284600E+00  2.79284600E+00  2.79284600E+00
  2.79284600E+00  2.79284600E+00
MicOpt                                     I   N=          12
          -1          -1          -1          -1          -1          -1
          -1          -1          -1          -1          -1          -1
Number of residues                         I                0
Number of secondary structures             I                0
Number of contracted shells                I               66
Number of primitive shells                 I              120
Pure/Cartesian d shells                    I                0
Pure/Cartesian f shells                    I                0
Highest angular momentum                   I                2
Largest degree of contraction              I                6
Shell types                                I   N=          66
           0          -1          -1          -1          -1          -2
           0          -1          -1          -1          -1          -2
           0          -1          -1          -1          -1          -2
           0          -1          -1          -1          -1          -2
           0          -1          -1          -1          -1          -2
           0          -1          -1          -1          -1          -2
           0           0           0           0           1           0
           0           0           0           1           0           0
           0           0           1           0           0           0
           0           1           0           0           0           0
           1           0           0           0           0           1
Number of primitives per shell             I   N=          66
           6           3           1           1           1           1
           6           3           1           1           1           1
           6           3           1           1           1           1
           6           3           1           1           1           1
           6           3           1           1           1           1
           6           3           1           1           1           1
           3           1           1           1           1           3
           1           1           1           1           3           1
           1           1           1           3           1           1
           1           1           3           1           1           1
           1           3           1           1           1           1
Shell to atom map                          I   N=          66
           1           1           1           1           1           1
           2           2           2           2           2           2
           3           3           3           3           3           3
           4           4           4           4           4           4
           5           5           5           5           5           5
           6           6           6           6           6           6
           7           7           7           7           7           8
           8           8           8           8           9           9
           9           9           9          10          10          10
          10          10          11          11          11          11
          11          12          12          12          12          12
Primitive exponents                        R   N=         120
  4.56324000E+03  6.82024000E+02  1.54973000E+02  4.44553000E+01  1.30290000E+01
  1.82773000E+00  2.09642000E+01  4.80331000E+00  1.45933000E+00  4.83456000E-01
  1.45585000E-01  4.38000000E-02  6.26000000E-01  4.56324000E+03  6.82024000E+02
  1.54973000E+02  4.44553000E+01  1.30290000E+01  1.82773000E+00  2.09642000E+01
  4.80331000E+00  1.45933000E+00  4.83456000E-01  1.45585000E-01  4.38000000E-02
  6.26000000E-01  4.56324000E+03  6.82024000E+02  1.54973000E+02  4.44553000E+01
  1.30290000E+01  1.82773000E+00  2.09642000E+01  4.80331000E+00  1.45933000E+00
  4.83456000E-01  1.45585000E-01  4.38000000E-02  6.26000000E-01  4.56324000E+03
  6.82024000E+02  1.54973000E+02  4.44553000E+01  1.30290000E+01  1.82773000E+00
  2.09642000E+01  4.80331000E+00  1.45933000E+00  4.83456000E-01  1.45585000E-01
  4.38000000E-02  6.26000000E-01  4.56324000E+03  6.82024000E+02  1.54973000E+02
  4.44553000E+01  1.30290000E+01  1.82773000E+00  2.09642000E+01  4.80331000E+00
  1.45933000E+00  4.83456000E-01  1.45585000E-01  4.38000000E-02  6.26000000E-01
  4.56324000E+03  6.82024000E+02  1.54973000E+02  4.44553000E+01  1.30290000E+01
  1.82773000E+00  2.09642000E+01  4.80331000E+00  1.45933000E+00  4.83456000E-01
  1.45585000E-01  4.38000000E-02  6.26000000E-01  3.38650000E+01  5.09479000E+00
  1.15879000E+00  3.25840000E-01  1.02741000E-01  3.60000000E-02  7.50000000E-01
  3.38650000E+01  5.09479000E+00  1.15879000E+00  3.25840000E-01  1.02741000E-01
  3.60000000E-02  7.50000000E-01  3.38650000E+01  5.09479000E+00  1.15879000E+00
  3.25840000E-01  1.02741000E-01  3.60000000E-02  7.50000000E-01  3.38650000E+01
  5.09479000E+00  1.15879000E+00  3.25840000E-01  1.02741000E-01  3.60000000E-02
  7.50000000E-01  3.38650000E+01  5.09479000E+00  1.15879000E+00  3.25840000E-01
  1.02741000E-01  3.60000000E-02  7.50000000E-01  3.38650000E+01  5.09479000E+00
  1.15879000E+00  3.25840000E-01  1.02741000E-01  3.60000000E-02  7.50000000E-01
Contraction coefficients                   R   N=         120
  1.96665025E-03  1.52306019E-02  7.61269097E-02  2.60801033E-01  6.16462078E-01
  2.21006028E-01  1.14660081E-01  9.19999648E-01 -3.03068213E-03  1.00000000E+00
  1.00000000E+00  1.00000000E+00  1.00000000E+00  1.96665025E-03  1.52306019E-02
  7.61269097E-02  2.60801033E-01  6.16462078E-01  2.21006028E-01  1.14660081E-01
  9.19999648E-01 -3.03068213E-03  1.00000000E+00  1.00000000E+00  1.00000000E+00
  1.00000000E+00  1.96665025E-03  1.52306019E-02  7.61269097E-02  2.60801033E-01
  6.16462078E-01  2.21006028E-01  1.14660081E-01  9.19999648E-01 -3.03068213E-03
  1.00000000E+00  1.00000000E+00  1.00000000E+00  1.00000000E+00  1.96665025E-03
  1.52306019E-02  7.61269097E-02  2.60801033E-01  6.16462078E-01  2.21006028E-01
  1.14660081E-01  9.19999648E-01 -3.03068213E-03  1.00000000E+00  1.00000000E+00
  1.00000000E+00  1.00000000E+00  1.96665025E-03  1.52306019E-02  7.61269097E-02
  2.60801033E-01  6.16462078E-01  2.21006028E-01  1.14660081E-01  9.19999648E-01
 -3.03068213E-03  1.00000000E+00  1.00000000E+00  1.00000000E+00  1.00000000E+00
  1.96665025E-03  1.52306019E-02  7.61269097E-02  2.60801033E-01  6.16462078E-01
  2.21006028E-01  1.14660081E-01  9.19999648E-01 -3.03068213E-03  1.00000000E+00
  1.00000000E+00  1.00000000E+00  1.00000000E+00  2.54938145E-02  1.90373109E-01
  8.52161486E-01  1.00000000E+00  1.00000000E+00  1.00000000E+00  1.00000000E+00
  2.54938145E-02  1.90373109E-01  8.52161486E-01  1.00000000E+00  1.00000000E+00
  1.00000000E+00  1.00000000E+00  2.54938145E-02  1.90373109E-01  8.52161486E-01
  1.00000000E+00  1.00000000E+00  1.00000000E+00  1.00000000E+00  2.54938145E-02
  1.90373109E-01  8.52161486E-01  1.00000000E+00  1.00000000E+00  1.00000000E+00
  1.00000000E+00  2.54938145E-02  1.90373109E-01  8.52161486E-01  1.00000000E+00
  1.00000000E+00  1.00000000E+00  1.00000000E+00  2.54938145E-02  1.90373109E-01
  8.52161486E-01  1.00000000E+00  1.00000000E+00  1.00000000E+00  1.00000000E+00
P(S=P) Contraction coefficients            R   N=         120
  0.00000000E+00  0.00000000E+00  0.00000000E+00  0.00000000E+00  0.00000000E+00
  0.00000000E+00  4.02486927E-02  2.37593957E-01  8.15853851E-01  1.00000000E+00
  1.00000000E+00  1.00000000E+00  0.00000000E+00  0.00000000E+00  0.00000000E+00
  0.00000000E+00  0.00000000E+00  0.00000000E+00  0.00000000E+00  4.02486927E-02
  2.37593957E-01  8.15853851E-01  1.00000000E+00  1.00000000E+00  1.00000000E+00
  0.00000000E+00  0.00000000E+00  0.00000000E+00  0.00000000E+00  0.00000000E+00
  0.00000000E+00  0.00000000E+00  4.02486927E-02  2.37593957E-01  8.15853851E-01
  1.00000000E+00  1.00000000E+00  1.00000000E+00  0.00000000E+00  0.00000000E+00
  0.00000000E+00  0.00000000E+00  0.00000000E+00  0.00000000E+00  0.00000000E+00
  4.02486927E-02  2.37593957E-01  8.15853851E-01  1.00000000E+00  1.00000000E+00
  1.00000000E+00  0.00000000E+00  0.00000000E+00  0.00000000E+00  0.00000000E+00
  0.00000000E+00  0.00000000E+00  0.00000000E+00  4.02486927E-02  2.37593957E-01
  8.15853851E-01  1.00000000E+00  1.00000000E+00  1.00000000E+00  0.00000000E+00
  0.00000000E+00  0.00000000E+00  0.00000000E+00  0.00000000E+00  0.00000000E+00
  0.00000000E+00  4.02486927E-02  2.37593957E-01  8.15853851E-01  1.00000000E+00
  1.00000000E+00  1.00000000E+00  0.00000000E+00  0.00000000E+00  0.00000000E+00
  0.00000000E+00  0.00000000E+00  0.00000000E+00  0.00000000E+00  0.00000000E+00
  0.00000000E+00  0.00000000E+00  0.00000000E+00  0.00000000E+00  0.00000000E+00
  0.00000000E+00  0.00000000E+00  0.00000000E+00  0.00000000E+00  0.00000000E+00
  0.00000000E+00  0.00000000E+00  0.00000000E+00  0.00000000E+00  0.00000000E+00
  0.00000000E+00  0.00000000E+00  0.00000000E+00  0.00000000E+00  0.00000000E+00
  0.00000000E+00  0.00000000E+00  0.00000000E+00  0.00000000E+00  0.00000000E+00
  0.00000000E+00  0.00000000E+00  0.00000000E+00  0.00000000E+00  0.00000000E+00
  0.00000000E+00  0.00000000E+00  0.00000000E+00  0.00000000E+00  0.00000000E+00
Coordinates of each shell                  R   N=         198
  2.68104915E+00  6.62682921E-02  0.00000000E+00  2.68104915E+00  6.62682921E-02
  0.00000000E+00  2.68104915E+00  6.62682921E-02  0.00000000E+00  2.68104915E+00
  6.62682921E-02  0.00000000E+00  2.68104915E+00  6.62682921E-02  0.00000000E+00
  2.68104915E+00  6.62682921E-02  0.00000000E+00  1.39784187E+00  2.28861851E+00
  0.00000000E+00  1.39784187E+00  2.28861851E+00  0.00000000E+00  1.39784187E+00
  2.28861851E+00  0.00000000E+00  1.39784187E+00  2.28861851E+00  0.00000000E+00
  1.39784187E+00  2.28861851E+00  0.00000000E+00  1.39784187E+00  2.28861851E+00
  0.00000000E+00 -1.39784187E+00  2.28861851E+00  0.00000000E+00 -1.39784187E+00
  2.28861851E+00  0.00000000E+00 -1.39784187E+00  2.28861851E+00  0.00000000E+00
 -1.39784187E+00  2.28861851E+00  0.00000000E+00 -1.39784187E+00  2.28861851E+00
  0.00000000E+00 -1.39784187E+00  2.28861851E+00  0.00000000E+00 -2.68104915E+00
  6.62682921E-02  0.00000000E+00 -2.68104915E+00  6.62682921E-02  0.00000000E+00
 -2.68104915E+00  6.62682921E-02  0.00000000E+00 -2.68104915E+00  6.62682921E-02
  0.00000000E+00 -2.68104915E+00  6.62682921E-02  0.00000000E+00 -2.68104915E+00
  6.62682921E-02  0.00000000E+00 -1.28309579E+00 -2.35486979E+00  0.00000000E+00
 -1.28309579E+00 -2.35486979E+00  0.00000000E+00 -1.28309579E+00 -2.35486979E+00
  0.00000000E+00 -1.28309579E+00 -2.35486979E+00  0.00000000E+00 -1.28309579E+00
 -2.35486979E+00  0.00000000E+00 -1.28309579E+00 -2.35486979E+00  0.00000000E+00
  1.28309579E+00 -2.35486979E+00  0.00000000E+00  1.28309579E+00 -2.35486979E+00
  0.00000000E+00  1.28309579E+00 -2.35486979E+00  0.00000000E+00  1.28309579E+00
 -2.35486979E+00  0.00000000E+00  1.28309579E+00 -2.35486979E+00  0.00000000E+00
  1.28309579E+00 -2.35486979E+00  0.00000000E+00  4.53440573E+00 -7.98037711E-01
  0.00000000E+00  4.53440573E+00 -7.98037711E-01  0.00000000E+00  4.53440573E+00
 -7.98037711E-01  0.00000000E+00  4.53440573E+00 -7.98037711E-01  0.00000000E+00
  4.53440573E+00 -7.98037711E-01  0.00000000E+00  1.57607894E+00  4.32583224E+00
  0.00000000E+00  1.57607894E+00  4.32583224E+00  0.00000000E+00  1.57607894E+00
  4.32583224E+00  0.00000000E+00  1.57607894E+00  4.32583224E+00  0.00000000E+00
  1.57607894E+00  4.32583224E+00  0.00000000E+00 -1.57607894E+00  4.32583224E+00
  0.00000000E+00 -1.57607894E+00  4.32583224E+00  0.00000000E+00 -1.57607894E+00
  4.32583224E+00  0.00000000E+00 -1.57607894E+00  4.32583224E+00  0.00000000E+00
 -1.57607894E+00  4.32583224E+00  0.00000000E+00 -4.53440573E+00 -7.98037711E-01
  0.00000000E+00 -4.53440573E+00 -7.98037711E-01  0.00000000E+00 -4.53440573E+00
 -7.98037711E-01  0.00000000E+00 -4.53440573E+00 -7.98037711E-01  0.00000000E+00
 -4.53440573E+00 -7.98037711E-01  0.00000000E+00 -2.95823041E+00 -3.52789658E+00
  0.00000000E+00 -2.95823041E+00 -3.52789658E+00  0.00000000E+00 -2.95823041E+00
 -3.52789658E+00  0.00000000E+00 -2.95823041E+00 -3.52789658E+00  0.00000000E+00
 -2.95823041E+00 -3.52789658E+00  0.00000000E+00  2.95823041E+00 -3.52789658E+00
  0.00000000E+00  2.95823041E+00 -3.52789658E+00  0.00000000E+00  2.95823041E+00
 -3.52789658E+00  0.00000000E+00  2.95823041E+00 -3.52789658E+00  0.00000000E+00
  2.95823041E+00 -3.52789658E+00  0.00000000E+00
Num ILSW                                   I              100
ILSW                                       I   N=         100
           0           0           0           0           2           0
           0           0           0           0           0          -1
           5           0           0           0           0           0
           0           0           0           0           0           0
           1           1           0           0           0           0
           0           0      100000           0          -1           0
           0           0           0           0           0           0
           0           0           0           1           0           0
           0 -2000000000           1           0           0           0
           0           0           4          52           0           0
           0           0           0           0           0           0
           0           0           0          12           0           1
           0           0           0           0           0           0
           0           0           0           0           0           0
           0           0           0           0           0           0
           0           0           0           0           0           0
           0           0           0           0
Num RLSW                                   I               52
RLSW                                       R   N=          52
  1.00000000E+00  1.00000000E+00  1.00000000E+00  1.00000000E+00  1.00000000E+00
  0.00000000E+00  0.00000000E+00  1.00000000E+00  0.00000000E+00  0.00000000E+00
  0.00000000E+00  0.00000000E+00  1.00000000E+00  0.00000000E+00  0.00000000E+00
  0.00000000E+00  0.00000000E+00  1.00000000E+00  0.00000000E+00  0.00000000E+00
  0.00000000E+00  0.00000000E+00  1.00000000E+00  0.00000000E+00  0.00000000E+00
  0.00000000E+00  0.00000000E+00  1.00000000E+00  0.00000000E+00  0.00000000E+00
  0.00000000E+00  0.00000000E+00  1.00000000E+00  0.00000000E+00  0.00000000E+00
  0.00000000E+00  0.00000000E+00  0.00000000E+00  1.00000000E+00  1.00000000E+00
  0.00000000E+00  1.00000000E+00  0.00000000E+00  0.00000000E+00  0.00000000E+00
  0.00000000E+00  0.00000000E+00  0.00000000E+00  0.00000000E+00  0.00000000E+00
  0.00000000E+00  0.00000000E+00
MxBond                                     I                3
NBond                                      I   N=          12
           3           3           3           3           3           3
           1           1           1           1           1           1
IBond                                      I   N=          36
           2           6           7           1           3           8
           2           4           9           3           5          10
           4           6          11           1           5          12
           1           0           0           2           0           0
           3           0           0           4           0           0
           5           0           0           6           0           0
RBond                                      R   N=          36
  2.00000000E+00  1.00000000E+00  1.00000000E+00  2.00000000E+00  1.00000000E+00
  1.00000000E+00  1.00000000E+00  2.00000000E+00  1.00000000E+00  2.00000000E+00
  1.00000000E+00  1.00000000E+00  1.00000000E+00  2.00000000E+00  1.00000000E+00
  1.00000000E+00  2.00000000E+00  1.00000000E+00  1.00000000E+00  0.00000000E+00
  0.00000000E+00  1.00000000E+00  0.00000000E+00  0.00000000E+00  1.00000000E+00
  0.00000000E+00  0.00000000E+00  1.00000000E+00  0.00000000E+00  0.00000000E+00
  1.00000000E+00  0.00000000E+00  0.00000000E+00  1.00000000E+00  0.00000000E+00
  0.00000000E+00
Virial Ratio                               R      2.001222281676829E+00
SCF Energy                                 R     -2.306039923563749E+02
MP2 Energy                                 R     -2.314506332077687E+02
Total Energy                               R     -2.314506332077687E+02
Post-SCF wavefunction norm                 R      1.149562658310929E+00
RMS Density                                R      4.742175536192875E-09
Job Status                                 I                1
Nuclear derivative order                   I                0
External E-field                           R   N=          35
  0.00000000E+00  0.00000000E+00  0.00000000E+00  0.00000000E+00  0.00000000E+00
  0.00000000E+00  0.00000000E+00  0.00000000E+00  0.00000000E+00  0.00000000E+00
  0.00000000E+00  0.00000000E+00  0.00000000E+00  0.00000000E+00  0.00000000E+00
  0.00000000E+00  0.00000000E+00  0.00000000E+00  0.00000000E+00  0.00000000E+00
  0.00000000E+00  0.00000000E+00  0.00000000E+00  0.00000000E+00  0.00000000E+00
  0.00000000E+00  0.00000000E+00  0.00000000E+00  0.00000000E+00  0.00000000E+00
  0.00000000E+00  0.00000000E+00  0.00000000E+00  0.00000000E+00  0.00000000E+00
IOpCl                                      I                0
IROHF                                      I                0
Alpha Orbital Energies                     R   N=         174
 -1.12499090E+01 -1.12494385E+01 -1.12494359E+01 -1.12481683E+01 -1.12481655E+01
 -1.12476673E+01 -1.14793288E+00 -1.02422833E+00 -1.02422684E+00 -8.41592640E-01
 -8.41583187E-01 -7.48620447E-01 -6.28675769E-01 -5.96808086E-01 -5.87968610E-01
 -5.87961797E-01 -4.97600924E-01 -4.60151389E-01 -4.60130442E-01 -3.42052595E-01
 -3.42051370E-01  4.16524482E-02  4.89707284E-02  4.89712691E-02  6.71710324E-02
  6.71712646E-02  8.94900691E-02  1.01879498E-01  1.01887544E-01  1.28672466E-01
  1.50475868E-01  1.53170938E-01  1.53171063E-01  1.61351719E-01  1.68231591E-01
  1.68234460E-01  1.88879770E-01  1.88880197E-01  1.89960700E-01  2.08915127E-01
  2.13223445E-01  2.13227941E-01  2.15841034E-01  2.15841442E-01  2.22223851E-01
  2.24910606E-01  2.24911680E-01  2.49402099E-01  2.49403750E-01  2.85228623E-01
  2.85230643E-01  2.97974074E-01  3.24145289E-01  3.36125363E-01  3.44767218E-01
  3.44770511E-01  3.55684602E-01  4.35579122E-01  4.35597104E-01  4.49927871E-01
  4.78670735E-01  4.78674080E-01  5.20320995E-01  5.20327758E-01  5.84884746E-01
  6.52415850E-01  6.90617840E-01  7.11414205E-01  7.38783728E-01  7.38787465E-01
  7.51397083E-01  7.55012462E-01  7.55017647E-01  7.57319712E-01  7.57323535E-01
  7.91901983E-01  8.15190927E-01  8.15194242E-01  8.81058895E-01  8.86490386E-01
  8.86494999E-01  9.55666079E-01  9.55670722E-01  9.58893036E-01  1.00690827E+00
  1.00691020E+00  1.01249279E+00  1.04828500E+00  1.06490274E+00  1.06490356E+00
  1.14556026E+00  1.14608171E+00  1.14609064E+00  1.16007048E+00  1.20780650E+00
  1.20780947E+00  1.23482096E+00  1.30825469E+00  1.30826478E+00  1.35260985E+00
  1.40877135E+00  1.40877992E+00  1.52821464E+00  1.60720739E+00  1.68481598E+00
  1.68483842E+00  1.74274306E+00  1.75203993E+00  1.75204512E+00  1.79824385E+00
  1.90322208E+00  1.90325684E+00  1.96166830E+00  1.96166888E+00  1.97907572E+00
  2.04764295E+00  2.04764769E+00  2.04886860E+00  2.04889801E+00  2.14207647E+00
  2.14208470E+00  2.14471908E+00  2.17869970E+00  2.20898623E+00  2.20899245E+00
  2.33133046E+00  2.39998832E+00  2.39999533E+00  2.42909359E+00  2.46439066E+00
  2.46440034E+00  2.50705423E+00  2.50706133E+00  2.69531925E+00  2.75533120E+00
  2.80135522E+00  2.80140896E+00  2.84748094E+00  2.90498036E+00  2.92817458E+00
  2.92818101E+00  3.04732818E+00  3.09838647E+00  3.09839101E+00  3.18763810E+00
  3.18764517E+00  3.24699678E+00  3.24700157E+00  3.26393654E+00  3.29579300E+00
  3.29579415E+00  3.38213550E+00  3.38214304E+00  3.45259640E+00  3.45766038E+00
  3.55196386E+00  3.64446509E+00  3.64451380E+00  3.76236665E+00  3.94627413E+00
  3.94671260E+00  3.94672048E+00  4.29897498E+00  4.29898026E+00  4.50740862E+00
  4.52393636E+00  4.52393769E+00  5.18710450E+00  2.46820436E+01  2.50161042E+01
  2.50161546E+01  2.54657717E+01  2.54657912E+01  2.55170259E+01
Alpha MO coefficients                      R   N=       30276
  2.30373594E-01  1.90739204E-01 -4.47863103E-05  3.63297524E-05 -9.44989630E-16
  1.94199233E-03 -1.06868525E-04 -2.27351933E-05  3.02012817E-15 -2.59060558E-04
  2.36618444E-05  9.33190099E-06 -9.66245778E-15 -2.08023972E-04 -2.10033701E-04
  1.69439674E-04  4.51785570E-14 -1.46445542E-04  3.23984383E-16  1.48989206E-17
 -5.92342105E-05 -9.12620871E-05  2.30310924E-01  1.90687214E-01  8.77245682E-06
 -5.69568678E-05 -3.79563379E-16  1.94199002E-03 -7.38986718E-05 -8.13579306E-05
 -7.32628896E-16 -2.59030538E-04  2.06747574E-05  1.46325657E-05  6.96856154E-15
 -2.03981661E-04  3.94398012E-05 -2.66493008E-04 -4.08386353E-14 -1.46190800E-04
 -2.50287323E-17 -3.14739213E-16 -4.88382653E-05 -9.64764280E-05  2.30310924E-01
  1.90687214E-01 -8.77245685E-06 -5.69568678E-05 -7.88855316E-16  1.94199002E-03
  7.38986717E-05 -8.13579306E-05  1.29304438E-15 -2.59030541E-04 -2.06747567E-05
  1.46325690E-05 -5.07900281E-15 -2.03981820E-04 -3.94397935E-05 -2.66492960E-04
  3.54036603E-14 -1.46190800E-04 -2.15594823E-16  3.29491811E-16 -4.88382653E-05
  9.64764280E-05  2.30373594E-01  1.90739204E-01  4.47863103E-05  3.63297524E-05
 -2.53820143E-16  1.94199233E-03  1.06868525E-04 -2.27351933E-05 -2.31141188E-16
 -2.59060555E-04 -2.36618418E-05  9.33190352E-06  4.41418012E-15 -2.08023815E-04
  2.10033739E-04  1.69439706E-04 -3.40140409E-14 -1.46445542E-04  2.42366048E-16
  2.40601961E-17 -5.92342106E-05  9.12620871E-05  2.29097762E-01  1.89682614E-01
  5.31451147E-05  2.09827178E-05 -4.09231003E-16  1.93253355E-03  3.37605064E-05
  1.05020897E-04  9.54701612E-16 -2.59191614E-04 -2.34685484E-06 -2.53697646E-05
 -5.57476176E-15 -1.98003154E-04  2.46033370E-04  9.73654955E-05  3.70183651E-14
 -1.45370828E-04 -5.49719911E-17 -1.58421142E-16  1.07029922E-04 -6.13475899E-06
  2.29097762E-01  1.89682614E-01 -5.31451148E-05  2.09827178E-05  4.17360736E-16
  1.93253355E-03 -3.37605064E-05  1.05020897E-04 -1.75929543E-15 -2.59191611E-04
  2.34685119E-06 -2.53697638E-05  7.85972217E-15 -1.98002992E-04 -2.46033418E-04
  9.73655131E-05 -4.22037720E-14 -1.45370828E-04 -6.11950380E-17  2.88251977E-16
  1.07029922E-04  6.13475903E-06  1.56677083E-04 -1.46237952E-04  2.90751672E-04
  1.50576212E-04  5.03318475E-05  3.61899474E-05  1.38422140E-16  1.56700727E-04
 -1.45619208E-04  2.90996567E-04  1.50602023E-04  5.63499717E-05  2.52471382E-05
 -2.14052665E-16  1.56700727E-04 -1.45619208E-04  2.90996566E-04  1.50602010E-04
 -5.63499717E-05  2.52471382E-05 -6.51949197E-17  1.56677083E-04 -1.46237951E-04
  2.90751673E-04  1.50576225E-04 -5.03318475E-05  3.61899475E-05 -1.40977386E-17
  1.55944181E-04 -1.44248557E-04  2.88781660E-04  1.47857853E-04  6.49575851E-06
 -6.09177953E-05  1.21709756E-16  1.55944181E-04 -1.44248556E-04  2.88781662E-04
  1.47857866E-04 -6.49575855E-06 -6.09177953E-05 -1.12339671E-16  3.17541021E-01
  2.62943328E-01 -3.46242233E-05  7.37829198E-05  9.26384663E-16  2.50982205E-03
  1.03393315E-05 -3.19405788E-05 -2.63452973E-15 -1.02867344E-04  9.84441589E-06
 -3.74517992E-05  3.97942445E-15 -1.02581817E-03 -9.22474008E-04  7.20425201E-04
 -7.85493009E-15 -2.30300176E-04  1.79361295E-16 -3.34734190E-16 -7.62094413E-05
 -2.16527397E-04  2.20031260E-01  1.82209304E-01  1.41472311E-04 -1.19779725E-04
 -3.07612745E-16  1.68075936E-03  1.60120260E-04  1.26715422E-04  4.73991927E-16
  4.30780538E-05 -1.56605857E-04  1.23179205E-04 -2.19451284E-15 -2.41768309E-03
  6.30513159E-04 -9.40580626E-04  6.54219231E-15 -1.69433632E-04  4.06540519E-16
 -2.46514650E-16 -1.88394423E-04 -2.22104388E-04 -2.20031261E-01 -1.82209304E-01
  1.41472311E-04  1.19779725E-04 -9.51339225E-16 -1.68075936E-03  1.60120260E-04
 -1.26715422E-04  7.11316899E-16 -4.30780536E-05 -1.56605857E-04 -1.23179204E-04
 -1.06664744E-16  2.41768307E-03  6.30513161E-04  9.40580632E-04 -2.62454284E-15
  1.69433632E-04  2.12183083E-17  6.36814178E-16  1.88394424E-04 -2.22104388E-04
 -3.17541022E-01 -2.62943328E-01 -3.46242233E-05 -7.37829202E-05 -2.17597790E-16
 -2.50982206E-03  1.03393320E-05  3.19405786E-05 -2.76879325E-16  1.02867344E-04
  9.84441641E-06  3.74517998E-05  1.79371221E-16  1.02581819E-03 -9.22474005E-04
 -7.20425197E-04  1.16956366E-15  2.30300176E-04  2.69756972E-16 -5.97962804E-17