 Entering Gaussian System, Link 0=g09
 Initial command:
 /apps/software//g09/l1.exe /scratch/itamar/2994.cluster.abaxnet/Gau-31066.inp -scrdir=/scratch/itamar/2994.cluster.abaxnet/
 Entering Link 1 = /apps/software//g09/l1.exe PID=     31067.
  
 Copyright (c) 1988,1990,1992,1993,1995,1998,2003,2009, Gaussian, Inc.
                  All Rights Reserved.
  
 This is part of the Gaussian(R) 09 program.  It is based on
 the Gaussian(R) 03 system (copyright 2003, Gaussian, Inc.),
 the Gaussian(R) 98 system (copyright 1998, Gaussian, Inc.),
 the Gaussian(R) 94 system (copyright 1995, Gaussian, Inc.),
 the Gaussian 92(TM) system (copyright 1992, Gaussian, Inc.),
 the Gaussian 90(TM) system (copyright 1990, Gaussian, Inc.),
 the Gaussian 88(TM) system (copyright 1988, Gaussian, Inc.),
 the Gaussian 86(TM) system (copyright 1986, Carnegie Mellon
 University), and the Gaussian 82(TM) system (copyright 1983,
 Carnegie Mellon University). Gaussian is a federally registered
 trademark of Gaussian, Inc.
  
 This software contains proprietary and confidential information,
 including trade secrets, belonging to Gaussian, Inc.
  
 This software is provided under written license and may be
 used, copied, transmitted, or stored only in accord with that
 written license.
  
 The following legend is applicable only to US Government
 contracts under FAR:
  
                    RESTRICTED RIGHTS LEGEND
  
 Use, reproduction and disclosure by the US Government is
 subject to restrictions as set forth in subparagraphs (a)
 and (c) of the Commercial Computer Software - Restricted
 Rights clause in FAR 52.227-19.
  
 Gaussian, Inc.
 340 Quinnipiac St., Bldg. 40, Wallingford CT 06492
  
  
 ---------------------------------------------------------------
 Warning -- This program may not be used in any manner that
 competes with the business of Gaussian, Inc. or will provide
 assistance to any competitor of Gaussian, Inc.  The licensee
 of this program is prohibited from giving any competitor of
 Gaussian, Inc. access to this program.  By using this program,
 the user acknowledges that Gaussian, Inc. is engaged in the
 business of creating and licensing software in the field of
 computational chemistry and represents and warrants to the
 licensee that it is not a competitor of Gaussian, Inc. and that
 it will not use this program in any manner prohibited above.
 ---------------------------------------------------------------
  

 Cite this work as:
 Gaussian 09, Revision A.02,
 M. J. Frisch, G. W. Trucks, H. B. Schlegel, G. E. Scuseria, 
 M. A. Robb, J. R. Cheeseman, G. Scalmani, V. Barone, B. Mennucci, 
 G. A. Petersson, H. Nakatsuji, M. Caricato, X. Li, H. P. Hratchian, 
 A. F. Izmaylov, J. Bloino, G. Zheng, J. L. Sonnenberg, M. Hada, 
 M. Ehara, K. Toyota, R. Fukuda, J. Hasegawa, M. Ishida, T. Nakajima, 
 Y. Honda, O. Kitao, H. Nakai, T. Vreven, J. A. Montgomery, Jr., 
 J. E. Peralta, F. Ogliaro, M. Bearpark, J. J. Heyd, E. Brothers, 
 K. N. Kudin, V. N. Staroverov, R. Kobayashi, J. Normand, 
 K. Raghavachari, A. Rendell, J. C. Burant, S. S. Iyengar, J. Tomasi, 
 M. Cossi, N. Rega, J. M. Millam, M. Klene, J. E. Knox, J. B. Cross, 
 V. Bakken, C. Adamo, J. Jaramillo, R. Gomperts, R. E. Stratmann, 
 O. Yazyev, A. J. Austin, R. Cammi, C. Pomelli, J. W. Ochterski, 
 R. L. Martin, K. Morokuma, V. G. Zakrzewski, G. A. Voth, 
 P. Salvador, J. J. Dannenberg, S. Dapprich, A. D. Daniels, 
 O. Farkas, J. B. Foresman, J. V. Ortiz, J. Cioslowski, 
 and D. J. Fox, Gaussian, Inc., Wallingford CT, 2009.
 
 ******************************************
 Gaussian 09:  EM64L-G09RevA.02 11-Jun-2009
                14-Dec-2021 
 ******************************************
 %Mem=3800MB
 %NProcShared=6
 Will use up to    6 processors via shared memory.
 %chk=/home/itamar/Aromaticity-test-set/T6-Subst-Complex-in-Benzene/COCH3/opt-geo
 m/coch3-opt.chk
 -----------------------
 #P B3LYP/6-311++G** OPT
 -----------------------
 1/14=-1,18=20,19=15,26=3,38=1/1,3;
 2/9=110,12=2,17=6,18=5,40=1/2;
 3/5=4,6=6,7=1111,11=2,16=1,25=1,30=1,71=1,74=-5/1,2,3;
 4//1;
 5/5=2,38=5/2;
 6/7=2,8=2,9=2,10=2,28=1/1;
 7//1,2,3,16;
 1/14=-1,18=20,19=15/3(2);
 2/9=110/2;
 99//99;
 2/9=110/2;
 3/5=4,6=6,7=1111,11=2,16=1,25=1,30=1,71=1,74=-5/1,2,3;
 4/5=5,16=3/1;
 5/5=2,38=5/2;
 7//1,2,3,16;
 1/14=-1,18=20,19=15/3(-5);
 2/9=110/2;
 6/7=2,8=2,9=2,10=2,19=2,28=1/1;
 99/9=1/99;
 Leave Link    1 at Tue Dec 14 10:17:43 2021, MaxMem=  498073600 cpu:       0.2
 (Enter /apps/software//g09/l101.exe)
 ------------------------------------------
 X=COCH3 - Original geometry missing oxygen
 ------------------------------------------
 Symbolic Z-matrix:
 Charge =  0 Multiplicity = 1
 6                    -1.98167   1.10354   0.00015 
 6                    -2.55057  -0.17226   0.00005 
 6                    -1.72424  -1.29184  -0.00011 
 6                    -0.33788  -1.14281  -0.00018 
 6                     0.24222   0.13171  -0.00009 
 6                    -0.60211   1.25637   0.00008 
 6                     1.70187   0.30145  -0.00018 
 8                     2.48293   1.346     0.00021 
 6                     2.68562  -0.88459   0.00003 
 1                    -0.16924   2.25032   0.00016 
 1                    -2.61778   1.98139   0.00028 
 1                    -3.62813  -0.28866   0.0001 
 1                    -2.1552   -2.28657  -0.00019 
 1                     0.28983  -2.02563  -0.0003 
 1                     3.72556  -0.5459   -0.00054 
 1                     2.52934  -1.48479   0.89898 
 1                     2.52865  -1.48564  -0.89825 
 
 NAtoms=     17 NQM=     17 NQMF=      0 NMic=      0 NMicF=      0 NTot=     17.
                    Isotopes and Nuclear Properties:
 (Nuclear quadrupole moments (NQMom) in fm**2, nuclear magnetic moments (NMagM)
  in nuclear magnetons)

  Atom         1           2           3           4           5           6           7           8           9          10
 IAtWgt=          12          12          12          12          12          12          12          16          12           1
 AtmWgt=  12.0000000  12.0000000  12.0000000  12.0000000  12.0000000  12.0000000  12.0000000  15.9949146  12.0000000   1.0078250
 NucSpn=           0           0           0           0           0           0           0           0           0           1
 AtZEff=   0.0000000   0.0000000   0.0000000   0.0000000   0.0000000   0.0000000   0.0000000   0.0000000   0.0000000   0.0000000
 NQMom=    0.0000000   0.0000000   0.0000000   0.0000000   0.0000000   0.0000000   0.0000000   0.0000000   0.0000000   0.0000000
 NMagM=    0.0000000   0.0000000   0.0000000   0.0000000   0.0000000   0.0000000   0.0000000   0.0000000   0.0000000   2.7928460

  Atom        11          12          13          14          15          16          17
 IAtWgt=           1           1           1           1           1           1           1
 AtmWgt=   1.0078250   1.0078250   1.0078250   1.0078250   1.0078250   1.0078250   1.0078250
 NucSpn=           1           1           1           1           1           1           1
 AtZEff=   0.0000000   0.0000000   0.0000000   0.0000000   0.0000000   0.0000000   0.0000000
 NQMom=    0.0000000   0.0000000   0.0000000   0.0000000   0.0000000   0.0000000   0.0000000
 NMagM=    2.7928460   2.7928460   2.7928460   2.7928460   2.7928460   2.7928460   2.7928460
 Leave Link  101 at Tue Dec 14 10:17:43 2021, MaxMem=  498073600 cpu:       0.3
 (Enter /apps/software//g09/l103.exe)

 GradGradGradGradGradGradGradGradGradGradGradGradGradGradGradGradGradGrad
 Berny optimization.
 Initialization pass.
                           ----------------------------
                           !    Initial Parameters    !
                           ! (Angstroms and Degrees)  !
 --------------------------                            --------------------------
 ! Name  Definition              Value          Derivative Info.                !
 --------------------------------------------------------------------------------
 ! R1    R(1,2)                  1.3969         estimate D2E/DX2                !
 ! R2    R(1,6)                  1.388          estimate D2E/DX2                !
 ! R3    R(1,11)                 1.0841         estimate D2E/DX2                !
 ! R4    R(2,3)                  1.3915         estimate D2E/DX2                !
 ! R5    R(2,12)                 1.0838         estimate D2E/DX2                !
 ! R6    R(3,4)                  1.3943         estimate D2E/DX2                !
 ! R7    R(3,13)                 1.0841         estimate D2E/DX2                !
 ! R8    R(4,5)                  1.4003         estimate D2E/DX2                !
 ! R9    R(4,14)                 1.0832         estimate D2E/DX2                !
 ! R10   R(5,6)                  1.4063         estimate D2E/DX2                !
 ! R11   R(5,7)                  1.4695         estimate D2E/DX2                !
 ! R12   R(6,10)                 1.0841         estimate D2E/DX2                !
 ! R13   R(7,8)                  1.3043         estimate D2E/DX2                !
 ! R14   R(7,9)                  1.5409         estimate D2E/DX2                !
 ! R15   R(9,15)                 1.0937         estimate D2E/DX2                !
 ! R16   R(9,16)                 1.0921         estimate D2E/DX2                !
 ! R17   R(9,17)                 1.0921         estimate D2E/DX2                !
 ! A1    A(2,1,6)              120.3545         estimate D2E/DX2                !
 ! A2    A(2,1,11)             120.0393         estimate D2E/DX2                !
 ! A3    A(6,1,11)             119.6062         estimate D2E/DX2                !
 ! A4    A(1,2,3)              119.5375         estimate D2E/DX2                !
 ! A5    A(1,2,12)             120.1986         estimate D2E/DX2                !
 ! A6    A(3,2,12)             120.2639         estimate D2E/DX2                !
 ! A7    A(2,3,4)              120.2939         estimate D2E/DX2                !
 ! A8    A(2,3,13)             120.146          estimate D2E/DX2                !
 ! A9    A(4,3,13)             119.5601         estimate D2E/DX2                !
 ! A10   A(3,4,5)              120.6086         estimate D2E/DX2                !
 ! A11   A(3,4,14)             119.2783         estimate D2E/DX2                !
 ! A12   A(5,4,14)             120.1131         estimate D2E/DX2                !
 ! A13   A(4,5,6)              118.6298         estimate D2E/DX2                !
 ! A14   A(4,5,7)              121.1059         estimate D2E/DX2                !
 ! A15   A(6,5,7)              120.2643         estimate D2E/DX2                !
 ! A16   A(1,6,5)              120.5758         estimate D2E/DX2                !
 ! A17   A(1,6,10)             119.855          estimate D2E/DX2                !
 ! A18   A(5,6,10)             119.5693         estimate D2E/DX2                !
 ! A19   A(5,7,8)              133.4205         estimate D2E/DX2                !
 ! A20   A(5,7,9)              123.0405         estimate D2E/DX2                !
 ! A21   A(8,7,9)              103.5391         estimate D2E/DX2                !
 ! A22   A(7,9,15)             111.6341         estimate D2E/DX2                !
 ! A23   A(7,9,16)             109.3754         estimate D2E/DX2                !
 ! A24   A(7,9,17)             109.3733         estimate D2E/DX2                !
 ! A25   A(15,9,16)            107.8583         estimate D2E/DX2                !
 ! A26   A(15,9,17)            107.8579         estimate D2E/DX2                !
 ! A27   A(16,9,17)            110.7312         estimate D2E/DX2                !
 ! D1    D(6,1,2,3)              0.0002         estimate D2E/DX2                !
 ! D2    D(6,1,2,12)          -179.9996         estimate D2E/DX2                !
 ! D3    D(11,1,2,3)           180.0            estimate D2E/DX2                !
 ! D4    D(11,1,2,12)            0.0002         estimate D2E/DX2                !
 ! D5    D(2,1,6,5)              0.0            estimate D2E/DX2                !
 ! D6    D(2,1,6,10)           179.9998         estimate D2E/DX2                !
 ! D7    D(11,1,6,5)          -179.9997         estimate D2E/DX2                !
 ! D8    D(11,1,6,10)            0.0001         estimate D2E/DX2                !
 ! D9    D(1,2,3,4)              0.0001         estimate D2E/DX2                !
 ! D10   D(1,2,3,13)           179.9998         estimate D2E/DX2                !
 ! D11   D(12,2,3,4)           179.9999         estimate D2E/DX2                !
 ! D12   D(12,2,3,13)           -0.0004         estimate D2E/DX2                !
 ! D13   D(2,3,4,5)             -0.0006         estimate D2E/DX2                !
 ! D14   D(2,3,4,14)           179.9996         estimate D2E/DX2                !
 ! D15   D(13,3,4,5)           179.9996         estimate D2E/DX2                !
 ! D16   D(13,3,4,14)           -0.0002         estimate D2E/DX2                !
 ! D17   D(3,4,5,6)              0.0008         estimate D2E/DX2                !
 ! D18   D(3,4,5,7)           -179.9987         estimate D2E/DX2                !
 ! D19   D(14,4,5,6)          -179.9993         estimate D2E/DX2                !
 ! D20   D(14,4,5,7)             0.0012         estimate D2E/DX2                !
 ! D21   D(4,5,6,1)             -0.0006         estimate D2E/DX2                !
 ! D22   D(4,5,6,10)           179.9996         estimate D2E/DX2                !
 ! D23   D(7,5,6,1)            179.999          estimate D2E/DX2                !
 ! D24   D(7,5,6,10)            -0.0008         estimate D2E/DX2                !
 ! D25   D(4,5,7,8)           -179.9791         estimate D2E/DX2                !
 ! D26   D(4,5,7,9)             -0.0179         estimate D2E/DX2                !
 ! D27   D(6,5,7,8)              0.0214         estimate D2E/DX2                !
 ! D28   D(6,5,7,9)            179.9826         estimate D2E/DX2                !
 ! D29   D(5,7,9,15)           179.9744         estimate D2E/DX2                !
 ! D30   D(5,7,9,16)           -60.7383         estimate D2E/DX2                !
 ! D31   D(5,7,9,17)            60.6891         estimate D2E/DX2                !
 ! D32   D(8,7,9,15)            -0.0546         estimate D2E/DX2                !
 ! D33   D(8,7,9,16)           119.2327         estimate D2E/DX2                !
 ! D34   D(8,7,9,17)          -119.34           estimate D2E/DX2                !
 --------------------------------------------------------------------------------
 Trust Radius=3.00D-01 FncErr=1.00D-07 GrdErr=1.00D-06
 Number of steps in this run=  88 maximum allowed number of steps= 102.
 GradGradGradGradGradGradGradGradGradGradGradGradGradGradGradGradGradGrad

 Leave Link  103 at Tue Dec 14 10:17:43 2021, MaxMem=  498073600 cpu:       0.0
 (Enter /apps/software//g09/l202.exe)
                          Input orientation:                          
 ---------------------------------------------------------------------
 Center     Atomic      Atomic             Coordinates (Angstroms)
 Number     Number       Type             X           Y           Z
 ---------------------------------------------------------------------
      1          6           0       -1.981668    1.103537    0.000149
      2          6           0       -2.550565   -0.172256    0.000049
      3          6           0       -1.724241   -1.291841   -0.000114
      4          6           0       -0.337883   -1.142807   -0.000176
      5          6           0        0.242220    0.131713   -0.000088
      6          6           0       -0.602114    1.256368    0.000082
      7          6           0        1.701868    0.301454   -0.000181
      8          8           0        2.482930    1.346000    0.000214
      9          6           0        2.685616   -0.884590    0.000026
     10          1           0       -0.169244    2.250318    0.000158
     11          1           0       -2.617779    1.981391    0.000276
     12          1           0       -3.628125   -0.288664    0.000095
     13          1           0       -2.155202   -2.286572   -0.000190
     14          1           0        0.289830   -2.025627   -0.000296
     15          1           0        3.725558   -0.545900   -0.000539
     16          1           0        2.529342   -1.484793    0.898980
     17          1           0        2.528647   -1.485635   -0.898248
 ---------------------------------------------------------------------
                    Distance matrix (angstroms):
                    1          2          3          4          5
     1  C    0.000000
     2  C    1.396886   0.000000
     3  C    2.409171   1.391503   0.000000
     4  C    2.783539   2.416181   1.394346   0.000000
     5  C    2.426957   2.809278   2.427648   1.400329   0.000000
     6  C    1.387994   2.416077   2.784338   2.413682   1.406325
     7  C    3.769851   4.278737   3.778467   2.499295   1.469484
     8  O    4.471177   5.257487   4.965732   3.761801   2.548583
     9  C    5.073085   5.284412   4.428622   3.034505   2.646329
    10  H    2.144758   3.396992   3.868450   3.397313   2.158191
    11  H    1.084096   2.154696   3.393001   3.867627   3.406010
    12  H    2.156164   1.083829   2.152008   3.399302   3.893108
    13  H    3.394548   2.150964   1.084074   2.147288   3.405251
    14  H    3.866700   3.391582   2.143577   1.083233   2.157865
    15  H    5.940797   6.287235   5.500612   4.107049   3.548634
    16  H    5.277931   5.323184   4.351847   3.024304   2.941486
    17  H    5.277677   5.322621   4.351006   3.023418   2.941131
                    6          7          8          9         10
     6  C    0.000000
     7  C    2.494032   0.000000
     8  O    3.086346   1.304275   0.000000
     9  C    3.923375   1.540928   2.239780   0.000000
    10  H    1.084119   2.701690   2.802110   4.240032   0.000000
    11  H    2.142093   4.634818   5.140132   6.028254   2.463259
    12  H    3.397627   5.362561   6.325909   6.341802   4.290721
    13  H    3.868398   4.644875   5.891337   5.039749   4.952515
    14  H    3.401037   2.721977   4.022133   2.653631   4.300518
    15  H    4.687954   2.193930   2.263495   1.093705   4.794613
    16  H    4.257699   2.164228   2.970408   1.092146   4.694816
    17  H    4.257610   2.164203   2.971108   1.092150   4.695007
                   11         12         13         14         15
    11  H    0.000000
    12  H    2.484743   0.000000
    13  H    4.292958   2.482164   0.000000
    14  H    4.950796   4.285722   2.458917   0.000000
    15  H    6.828259   7.358181   6.132966   3.740831   0.000000
    16  H    6.270164   6.336649   4.836973   2.473179   1.766801
    17  H    6.270033   6.336056   4.835954   2.471884   1.766799
                   16         17
    16  H    0.000000
    17  H    1.797228   0.000000
 Stoichiometry    C8H8O
 Framework group  C1[X(C8H8O)]
 Deg. of freedom    45
 Full point group                 C1      NOp   1
 Largest Abelian subgroup         C1      NOp   1
 Largest concise Abelian subgroup C1      NOp   1
                         Standard orientation:                         
 ---------------------------------------------------------------------
 Center     Atomic      Atomic             Coordinates (Angstroms)
 Number     Number       Type             X           Y           Z
 ---------------------------------------------------------------------
      1          6           0        2.016662   -1.140330    0.000142
      2          6           0        2.634480    0.112504    0.000042
      3          6           0        1.852078    1.263213   -0.000121
      4          6           0        0.460993    1.167913   -0.000183
      5          6           0       -0.167973   -0.083216   -0.000095
      6          6           0        0.632229   -1.239687    0.000075
      7          6           0       -1.633094   -0.196373   -0.000188
      8          8           0       -2.453973   -1.209927    0.000207
      9          6           0       -2.570231    1.026834    0.000019
     10          1           0        0.161239   -2.216151    0.000151
     11          1           0        2.618343   -2.042131    0.000269
     12          1           0        3.715736    0.187147    0.000088
     13          1           0        2.321191    2.240530   -0.000197
     14          1           0       -0.132104    2.074351   -0.000303
     15          1           0       -3.622495    0.728621   -0.000546
     16          1           0       -2.390859    1.620543    0.898973
     17          1           0       -2.390132    1.621358   -0.898255
 ---------------------------------------------------------------------
 Rotational constants (GHZ):      3.8321523      1.1445553      0.8863595
 Leave Link  202 at Tue Dec 14 10:17:43 2021, MaxMem=  498073600 cpu:       0.1
 (Enter /apps/software//g09/l301.exe)
 Standard basis: 6-311++G(d,p) (5D, 7F)
 Ernie: Thresh=  0.10000D-02 Tol=  0.10000D-05 Strict=F.
 There are   254 symmetry adapted basis functions of A   symmetry.
 Integral buffers will be    131072 words long.
 Raffenetti 2 integral format.
 Two-electron integral symmetry is turned on.
   254 basis functions,   396 primitive gaussians,   263 cartesian basis functions
    32 alpha electrons       32 beta electrons
       nuclear repulsion energy       397.1911114989 Hartrees.
 IExCor=  402 DFT=T Ex+Corr=B3LYP ExCW=0 ScaHFX=  0.200000
 ScaDFX=  0.800000  0.720000  1.000000  0.810000 ScalE2=  1.000000  1.000000
 IRadAn=      0 IRanWt=     -1 IRanGd=            0 ICorTp=0
 NAtoms=   17 NActive=   17 NUniq=   17 SFac= 7.50D-01 NAtFMM=   80 NAOKFM=F Big=F
 Leave Link  301 at Tue Dec 14 10:17:43 2021, MaxMem=  498073600 cpu:       0.2
 (Enter /apps/software//g09/l302.exe)
 NPDir=0 NMtPBC=     1 NCelOv=     1 NCel=       1 NClECP=     1 NCelD=      1
         NCelK=      1 NCelE2=     1 NClLst=     1 CellRange=     0.0.
 One-electron integrals computed using PRISM.
 NBasis=   254 RedAO= T  NBF=   254
 NBsUse=   253 1.00D-06 NBFU=   253
 Precomputing XC quadrature grid using
 IXCGrd= 2 IRadAn=           0 IRanWt=          -1 IRanGd=           0 AccXCQ= 1.00D-10.
 NRdTot=    1100 NPtTot=      140532 NUsed=      148466 NTot=      148498
 NSgBfM=   263   263   263   263   263 NAtAll=    17    17.
 Leave Link  302 at Tue Dec 14 10:17:43 2021, MaxMem=  498073600 cpu:       2.3
 (Enter /apps/software//g09/l303.exe)
 DipDrv:  MaxL=1.
 Leave Link  303 at Tue Dec 14 10:17:43 2021, MaxMem=  498073600 cpu:       0.3
 (Enter /apps/software//g09/l401.exe)
 Harris functional with IExCor=  402 diagonalized for initial guess.
 ExpMin= 3.60D-02 ExpMax= 8.59D+03 ExpMxC= 1.30D+03 IAcc=3 IRadAn=         0 AccDes= 0.00D+00
 HarFok:  IExCor=  402 AccDes= 0.00D+00 IRadAn=         0 IDoV= 1
 ScaDFX=  1.000000  1.000000  1.000000  1.000000
 FoFCou: FMM=F IPFlag=           0 FMFlag=      100000 FMFlg1=           0
         NFxFlg=           0 DoJE=T BraDBF=F KetDBF=T FulRan=T
         Omega=  0.000000  0.000000  1.000000  0.000000  0.000000 ICntrl=     500 IOpCl=  0
         NMat0=    1 NMatS0=    1 NMatT0=    0 NMatD0=    1 NMtDS0=    0 NMtDT0=    0
         I1Cent=           4 NGrid=           0.
 Petite list used in FoFCou.
 Harris En= -385.054402485435    
 Initial guess orbital symmetries:
       Occupied  (A) (A) (A) (A) (A) (A) (A) (A) (A) (A) (A) (A)
                 (A) (A) (A) (A) (A) (A) (A) (A) (A) (A) (A) (A)
                 (A) (A) (A) (A) (A) (A) (A) (A)
       Virtual   (A) (A) (A) (A) (A) (A) (A) (A) (A) (A) (A) (A)
                 (A) (A) (A) (A) (A) (A) (A) (A) (A) (A) (A) (A)
                 (A) (A) (A) (A) (A) (A) (A) (A) (A) (A) (A) (A)
                 (A) (A) (A) (A) (A) (A) (A) (A) (A) (A) (A) (A)
                 (A) (A) (A) (A) (A) (A) (A) (A) (A) (A) (A) (A)
                 (A) (A) (A) (A) (A) (A) (A) (A) (A) (A) (A) (A)
                 (A) (A) (A) (A) (A) (A) (A) (A) (A) (A) (A) (A)
                 (A) (A) (A) (A) (A) (A) (A) (A) (A) (A) (A) (A)
                 (A) (A) (A) (A) (A) (A) (A) (A) (A) (A) (A) (A)
                 (A) (A) (A) (A) (A) (A) (A) (A) (A) (A) (A) (A)
                 (A) (A) (A) (A) (A) (A) (A) (A) (A) (A) (A) (A)
                 (A) (A) (A) (A) (A) (A) (A) (A) (A) (A) (A) (A)
                 (A) (A) (A) (A) (A) (A) (A) (A) (A) (A) (A) (A)
                 (A) (A) (A) (A) (A) (A) (A) (A) (A) (A) (A) (A)
                 (A) (A) (A) (A) (A) (A) (A) (A) (A) (A) (A) (A)
                 (A) (A) (A) (A) (A) (A) (A) (A) (A) (A) (A) (A)
                 (A) (A) (A) (A) (A) (A) (A) (A) (A) (A) (A) (A)
                 (A) (A) (A) (A) (A) (A) (A) (A) (A) (A) (A) (A)
                 (A) (A) (A) (A) (A)
 The electronic state of the initial guess is 1-A.
 Leave Link  401 at Tue Dec 14 10:17:45 2021, MaxMem=  498073600 cpu:      11.9
 (Enter /apps/software//g09/l502.exe)
 Closed shell SCF:
 Requested convergence on RMS density matrix=1.00D-08 within 128 cycles.
 Requested convergence on MAX density matrix=1.00D-06.
 Requested convergence on             energy=1.00D-06.
 No special actions if energy rises.
 Using DIIS extrapolation, IDIIS=  1040.
 Integral symmetry usage will be decided dynamically.
       148300 words used for storage of precomputed grid.
 IEnd=      377491 IEndB=      377491 NGot=   498073600 MDV=   497782182
 LenX=   497782182 LenY=   497712572
 Fock matrices will be formed incrementally for  20 cycles.

 Cycle   1  Pass 1  IDiag  1:
 FoFCou: FMM=F IPFlag=           0 FMFlag=      100000 FMFlg1=           0
         NFxFlg=           0 DoJE=F BraDBF=F KetDBF=F FulRan=T
         Omega=  0.000000  0.000000  1.000000  0.000000  0.000000 ICntrl=       0 IOpCl=  0
         NMat0=    1 NMatS0=    1 NMatT0=    0 NMatD0=    1 NMtDS0=    0 NMtDT0=    0
         I1Cent=           0 NGrid=           0.
 Symmetry not used in FoFCou.
 E= -384.698895931371    
 DIIS: error= 3.82D-02 at cycle   1 NSaved=   1.
 NSaved= 1 IEnMin= 1 EnMin= -384.698895931371     IErMin= 1 ErrMin= 3.82D-02
 ErrMax= 3.82D-02 EMaxC= 1.00D-01 BMatC= 3.07D-01 BMatP= 3.07D-01
 IDIUse=3 WtCom= 6.18D-01 WtEn= 3.82D-01
 Coeff-Com:  0.100D+01
 Coeff-En:   0.100D+01
 Coeff:      0.100D+01
 Gap=     0.058 Goal=   None    Shift=    0.000
 GapD=    0.058 DampG=0.500 DampE=0.500 DampFc=0.2500 IDamp=-1.
 Damping current iteration by 2.50D-01
 RMSDP=6.84D-02 MaxDP=3.74D+00              OVMax= 3.00D-01

 Cycle   2  Pass 1  IDiag  1:
 RMSU=  1.05D-02    CP:  1.17D+00
 E= -384.793855337760     Delta-E=       -0.094959406389 Rises=F Damp=T
 DIIS: error= 1.98D-02 at cycle   2 NSaved=   2.
 NSaved= 2 IEnMin= 2 EnMin= -384.793855337760     IErMin= 2 ErrMin= 1.98D-02
 ErrMax= 1.98D-02 EMaxC= 1.00D-01 BMatC= 6.47D-02 BMatP= 3.07D-01
 IDIUse=3 WtCom= 8.02D-01 WtEn= 1.98D-01
 Coeff-Com: -0.510D+00 0.151D+01
 Coeff-En:   0.000D+00 0.100D+01
 Coeff:     -0.409D+00 0.141D+01
 Gap=     0.244 Goal=   None    Shift=    0.000
 RMSDP=1.89D-02 MaxDP=9.60D-01 DE=-9.50D-02 OVMax= 3.07D-01

 Cycle   3  Pass 1  IDiag  1:
 RMSU=  6.07D-03    CP:  8.98D-01  3.26D-01
 E= -384.917292558299     Delta-E=       -0.123437220540 Rises=F Damp=F
 DIIS: error= 2.61D-02 at cycle   3 NSaved=   3.
 NSaved= 3 IEnMin= 3 EnMin= -384.917292558299     IErMin= 2 ErrMin= 1.98D-02
 ErrMax= 2.61D-02 EMaxC= 1.00D-01 BMatC= 6.47D-02 BMatP= 6.47D-02
 IDIUse=3 WtCom= 7.39D-01 WtEn= 2.61D-01
 Coeff-Com: -0.396D+00 0.972D+00 0.424D+00
 Coeff-En:   0.000D+00 0.000D+00 0.100D+01
 Coeff:     -0.292D+00 0.718D+00 0.575D+00
 Gap=     0.203 Goal=   None    Shift=    0.000
 RMSDP=1.03D-02 MaxDP=6.20D-01 DE=-1.23D-01 OVMax= 1.50D-01

 Cycle   4  Pass 1  IDiag  1:
 RMSU=  2.65D-03    CP:  1.06D+00  6.43D-01  7.56D-01
 E= -384.942593046372     Delta-E=       -0.025300488073 Rises=F Damp=F
 DIIS: error= 2.31D-02 at cycle   4 NSaved=   4.
 NSaved= 4 IEnMin= 4 EnMin= -384.942593046372     IErMin= 2 ErrMin= 1.98D-02
 ErrMax= 2.31D-02 EMaxC= 1.00D-01 BMatC= 3.90D-02 BMatP= 6.47D-02
 IDIUse=3 WtCom= 7.69D-01 WtEn= 2.31D-01
 Coeff-Com: -0.108D-01 0.998D-01 0.412D+00 0.499D+00
 Coeff-En:   0.000D+00 0.000D+00 0.394D+00 0.606D+00
 Coeff:     -0.832D-02 0.768D-01 0.408D+00 0.524D+00
 Gap=     0.161 Goal=   None    Shift=    0.000
 RMSDP=7.89D-03 MaxDP=5.08D-01 DE=-2.53D-02 OVMax= 6.70D-02

 Cycle   5  Pass 1  IDiag  1:
 RMSU=  7.36D-04    CP:  9.26D-01  4.18D-01  8.43D-01  3.81D-01
 E= -384.974164680401     Delta-E=       -0.031571634029 Rises=F Damp=F
 DIIS: error= 2.07D-03 at cycle   5 NSaved=   5.
 NSaved= 5 IEnMin= 5 EnMin= -384.974164680401     IErMin= 5 ErrMin= 2.07D-03
 ErrMax= 2.07D-03 EMaxC= 1.00D-01 BMatC= 4.11D-04 BMatP= 3.90D-02
 IDIUse=3 WtCom= 9.79D-01 WtEn= 2.07D-02
 Coeff-Com: -0.130D-03 0.452D-02 0.125D+00 0.207D+00 0.664D+00
 Coeff-En:   0.000D+00 0.000D+00 0.000D+00 0.000D+00 0.100D+01
 Coeff:     -0.127D-03 0.443D-02 0.122D+00 0.203D+00 0.671D+00
 Gap=     0.156 Goal=   None    Shift=    0.000
 RMSDP=7.60D-04 MaxDP=4.48D-02 DE=-3.16D-02 OVMax= 1.10D-02

 Cycle   6  Pass 1  IDiag  1:
 RMSU=  2.84D-04    CP:  9.36D-01  4.41D-01  8.34D-01  4.15D-01  8.04D-01
 E= -384.974429531964     Delta-E=       -0.000264851563 Rises=F Damp=F
 DIIS: error= 1.04D-03 at cycle   6 NSaved=   6.
 NSaved= 6 IEnMin= 6 EnMin= -384.974429531964     IErMin= 6 ErrMin= 1.04D-03
 ErrMax= 1.04D-03 EMaxC= 1.00D-01 BMatC= 8.54D-05 BMatP= 4.11D-04
 IDIUse=3 WtCom= 9.90D-01 WtEn= 1.04D-02
 Coeff-Com: -0.285D-02-0.515D-03 0.284D-01 0.634D-01 0.429D+00 0.483D+00
 Coeff-En:   0.000D+00 0.000D+00 0.000D+00 0.000D+00 0.209D+00 0.791D+00
 Coeff:     -0.282D-02-0.510D-03 0.281D-01 0.628D-01 0.427D+00 0.486D+00
 Gap=     0.157 Goal=   None    Shift=    0.000
 RMSDP=2.36D-04 MaxDP=1.12D-02 DE=-2.65D-04 OVMax= 4.81D-03

 Cycle   7  Pass 1  IDiag  1:
 RMSU=  4.60D-05    CP:  9.34D-01  4.29D-01  8.37D-01  4.23D-01  8.34D-01
                    CP:  7.11D-01
 E= -384.974521579555     Delta-E=       -0.000092047591 Rises=F Damp=F
 DIIS: error= 2.18D-04 at cycle   7 NSaved=   7.
 NSaved= 7 IEnMin= 7 EnMin= -384.974521579555     IErMin= 7 ErrMin= 2.18D-04
 ErrMax= 2.18D-04 EMaxC= 1.00D-01 BMatC= 4.13D-06 BMatP= 8.54D-05
 IDIUse=3 WtCom= 9.98D-01 WtEn= 2.18D-03
 Coeff-Com: -0.196D-02 0.571D-03 0.657D-02 0.186D-01 0.185D+00 0.263D+00
 Coeff-Com:  0.529D+00
 Coeff-En:   0.000D+00 0.000D+00 0.000D+00 0.000D+00 0.000D+00 0.000D+00
 Coeff-En:   0.100D+01
 Coeff:     -0.196D-02 0.570D-03 0.656D-02 0.186D-01 0.185D+00 0.262D+00
 Coeff:      0.530D+00
 Gap=     0.157 Goal=   None    Shift=    0.000
 RMSDP=2.94D-05 MaxDP=1.78D-03 DE=-9.20D-05 OVMax= 1.02D-03

 Cycle   8  Pass 1  IDiag  1:
 RMSU=  1.53D-05    CP:  9.34D-01  4.29D-01  8.38D-01  4.21D-01  8.46D-01
                    CP:  6.94D-01  8.75D-01
 E= -384.974525550479     Delta-E=       -0.000003970924 Rises=F Damp=F
 DIIS: error= 6.25D-05 at cycle   8 NSaved=   8.
 NSaved= 8 IEnMin= 8 EnMin= -384.974525550479     IErMin= 8 ErrMin= 6.25D-05
 ErrMax= 6.25D-05 EMaxC= 1.00D-01 BMatC= 5.06D-07 BMatP= 4.13D-06
 IDIUse=1 WtCom= 1.00D+00 WtEn= 0.00D+00
 Coeff-Com: -0.694D-03 0.572D-03-0.887D-03-0.430D-04 0.350D-01 0.685D-01
 Coeff-Com:  0.295D+00 0.602D+00
 Coeff:     -0.694D-03 0.572D-03-0.887D-03-0.430D-04 0.350D-01 0.685D-01
 Coeff:      0.295D+00 0.602D+00
 Gap=     0.157 Goal=   None    Shift=    0.000
 RMSDP=2.19D-05 MaxDP=1.10D-03 DE=-3.97D-06 OVMax= 2.60D-04

 Cycle   9  Pass 1  IDiag  1:
 RMSU=  6.33D-06    CP:  9.34D-01  4.28D-01  8.39D-01  4.21D-01  8.47D-01
                    CP:  6.88D-01  9.14D-01  7.49D-01
 E= -384.974526060886     Delta-E=       -0.000000510408 Rises=F Damp=F
 DIIS: error= 1.19D-05 at cycle   9 NSaved=   9.
 NSaved= 9 IEnMin= 9 EnMin= -384.974526060886     IErMin= 9 ErrMin= 1.19D-05
 ErrMax= 1.19D-05 EMaxC= 1.00D-01 BMatC= 1.46D-08 BMatP= 5.06D-07
 IDIUse=1 WtCom= 1.00D+00 WtEn= 0.00D+00
 Coeff-Com: -0.224D-03 0.192D-03-0.561D-03-0.580D-03 0.985D-02 0.211D-01
 Coeff-Com:  0.109D+00 0.262D+00 0.599D+00
 Coeff:     -0.224D-03 0.192D-03-0.561D-03-0.580D-03 0.985D-02 0.211D-01
 Coeff:      0.109D+00 0.262D+00 0.599D+00
 Gap=     0.157 Goal=   None    Shift=    0.000
 RMSDP=4.23D-06 MaxDP=2.05D-04 DE=-5.10D-07 OVMax= 5.14D-05

 Cycle  10  Pass 1  IDiag  1:
 RMSU=  1.17D-06    CP:  9.34D-01  4.28D-01  8.39D-01  4.21D-01  8.47D-01
                    CP:  6.94D-01  9.22D-01  7.83D-01  1.00D+00
 E= -384.974526073498     Delta-E=       -0.000000012612 Rises=F Damp=F
 DIIS: error= 4.04D-06 at cycle  10 NSaved=  10.
 NSaved=10 IEnMin=10 EnMin= -384.974526073498     IErMin=10 ErrMin= 4.04D-06
 ErrMax= 4.04D-06 EMaxC= 1.00D-01 BMatC= 1.59D-09 BMatP= 1.46D-08
 IDIUse=1 WtCom= 1.00D+00 WtEn= 0.00D+00
 Coeff-Com: -0.211D-04 0.274D-04-0.138D-03-0.267D-03-0.453D-04 0.187D-03
 Coeff-Com:  0.954D-02 0.390D-01 0.276D+00 0.676D+00
 Coeff:     -0.211D-04 0.274D-04-0.138D-03-0.267D-03-0.453D-04 0.187D-03
 Coeff:      0.954D-02 0.390D-01 0.276D+00 0.676D+00
 Gap=     0.157 Goal=   None    Shift=    0.000
 RMSDP=2.15D-06 MaxDP=1.07D-04 DE=-1.26D-08 OVMax= 1.67D-05

 Cycle  11  Pass 1  IDiag  1:
 RMSU=  3.97D-07    CP:  9.34D-01  4.28D-01  8.39D-01  4.21D-01  8.48D-01
                    CP:  6.94D-01  9.27D-01  8.10D-01  9.92D-01  1.02D+00
 E= -384.974526074922     Delta-E=       -0.000000001424 Rises=F Damp=F
 DIIS: error= 1.38D-06 at cycle  11 NSaved=  11.
 NSaved=11 IEnMin=11 EnMin= -384.974526074922     IErMin=11 ErrMin= 1.38D-06
 ErrMax= 1.38D-06 EMaxC= 1.00D-01 BMatC= 1.49D-10 BMatP= 1.59D-09
 IDIUse=1 WtCom= 1.00D+00 WtEn= 0.00D+00
 Coeff-Com: -0.646D-05 0.120D-04-0.588D-04-0.126D-03-0.409D-03-0.722D-03
 Coeff-Com:  0.110D-02 0.113D-01 0.125D+00 0.362D+00 0.502D+00
 Coeff:     -0.646D-05 0.120D-04-0.588D-04-0.126D-03-0.409D-03-0.722D-03
 Coeff:      0.110D-02 0.113D-01 0.125D+00 0.362D+00 0.502D+00
 Gap=     0.157 Goal=   None    Shift=    0.000
 RMSDP=3.56D-07 MaxDP=2.03D-05 DE=-1.42D-09 OVMax= 7.84D-06

 Cycle  12  Pass 1  IDiag  1:
 RMSU=  9.55D-08    CP:  9.34D-01  4.28D-01  8.39D-01  4.21D-01  8.48D-01
                    CP:  6.94D-01  9.28D-01  8.07D-01  1.00D+00  1.01D+00
                    CP:  9.00D-01
 E= -384.974526075069     Delta-E=       -0.000000000147 Rises=F Damp=F
 DIIS: error= 5.87D-07 at cycle  12 NSaved=  12.
 NSaved=12 IEnMin=12 EnMin= -384.974526075069     IErMin=12 ErrMin= 5.87D-07
 ErrMax= 5.87D-07 EMaxC= 1.00D-01 BMatC= 2.48D-11 BMatP= 1.49D-10
 IDIUse=1 WtCom= 1.00D+00 WtEn= 0.00D+00
 Coeff-Com: -0.816D-06 0.293D-05-0.739D-05-0.183D-04-0.252D-03-0.529D-03
 Coeff-Com: -0.160D-02-0.204D-02 0.165D-01 0.758D-01 0.298D+00 0.614D+00
 Coeff:     -0.816D-06 0.293D-05-0.739D-05-0.183D-04-0.252D-03-0.529D-03
 Coeff:     -0.160D-02-0.204D-02 0.165D-01 0.758D-01 0.298D+00 0.614D+00
 Gap=     0.157 Goal=   None    Shift=    0.000
 RMSDP=1.98D-07 MaxDP=9.97D-06 DE=-1.47D-10 OVMax= 2.52D-06

 Cycle  13  Pass 1  IDiag  1:
 RMSU=  3.33D-08    CP:  9.34D-01  4.28D-01  8.39D-01  4.21D-01  8.48D-01
                    CP:  6.94D-01  9.29D-01  8.08D-01  1.01D+00  1.01D+00
                    CP:  9.18D-01  9.65D-01
 E= -384.974526075092     Delta-E=       -0.000000000023 Rises=F Damp=F
 DIIS: error= 8.16D-08 at cycle  13 NSaved=  13.
 NSaved=13 IEnMin=13 EnMin= -384.974526075092     IErMin=13 ErrMin= 8.16D-08
 ErrMax= 8.16D-08 EMaxC= 1.00D-01 BMatC= 1.33D-12 BMatP= 2.48D-11
 IDIUse=1 WtCom= 1.00D+00 WtEn= 0.00D+00
 Coeff-Com:  0.268D-06 0.101D-07 0.363D-06 0.200D-06-0.100D-03-0.229D-03
 Coeff-Com: -0.957D-03-0.204D-02-0.153D-02 0.110D-01 0.111D+00 0.299D+00
 Coeff-Com:  0.584D+00
 Coeff:      0.268D-06 0.101D-07 0.363D-06 0.200D-06-0.100D-03-0.229D-03
 Coeff:     -0.957D-03-0.204D-02-0.153D-02 0.110D-01 0.111D+00 0.299D+00
 Coeff:      0.584D+00
 Gap=     0.157 Goal=   None    Shift=    0.000
 RMSDP=4.00D-08 MaxDP=1.87D-06 DE=-2.25D-11 OVMax= 4.95D-07

 Cycle  14  Pass 1  IDiag  1:
 RMSU=  6.95D-09    CP:  9.34D-01  4.28D-01  8.39D-01  4.21D-01  8.48D-01
                    CP:  6.94D-01  9.29D-01  8.09D-01  1.01D+00  1.02D+00
                    CP:  9.30D-01  9.40D-01  7.84D-01
 E= -384.974526075089     Delta-E=        0.000000000002 Rises=F Damp=F
 DIIS: error= 1.86D-08 at cycle  14 NSaved=  14.
 NSaved=14 IEnMin=13 EnMin= -384.974526075092     IErMin=14 ErrMin= 1.86D-08
 ErrMax= 1.86D-08 EMaxC= 1.00D-01 BMatC= 9.02D-14 BMatP= 1.33D-12
 IDIUse=1 WtCom= 1.00D+00 WtEn= 0.00D+00
 Coeff-Com:  0.787D-08 0.422D-07 0.674D-06 0.142D-05-0.974D-05-0.288D-04
 Coeff-Com: -0.153D-03-0.472D-03-0.235D-02-0.380D-02 0.116D-01 0.486D-01
 Coeff-Com:  0.243D+00 0.704D+00
 Coeff:      0.787D-08 0.422D-07 0.674D-06 0.142D-05-0.974D-05-0.288D-04
 Coeff:     -0.153D-03-0.472D-03-0.235D-02-0.380D-02 0.116D-01 0.486D-01
 Coeff:      0.243D+00 0.704D+00
 Gap=     0.157 Goal=   None    Shift=    0.000
 RMSDP=1.66D-08 MaxDP=9.28D-07 DE= 2.16D-12 OVMax= 7.30D-08

 Cycle  15  Pass 1  IDiag  1:
 RMSU=  2.79D-09    CP:  9.34D-01  4.28D-01  8.39D-01  4.21D-01  8.48D-01
                    CP:  6.94D-01  9.29D-01  8.09D-01  1.01D+00  1.02D+00
                    CP:  9.38D-01  9.52D-01  7.74D-01  9.33D-01
 E= -384.974526075089     Delta-E=        0.000000000000 Rises=F Damp=F
 DIIS: error= 4.97D-09 at cycle  15 NSaved=  15.
 NSaved=15 IEnMin=13 EnMin= -384.974526075092     IErMin=15 ErrMin= 4.97D-09
 ErrMax= 4.97D-09 EMaxC= 1.00D-01 BMatC= 3.55D-15 BMatP= 9.02D-14
 IDIUse=1 WtCom= 1.00D+00 WtEn= 0.00D+00
 Coeff-Com:  0.316D-07-0.442D-07 0.209D-06 0.318D-06 0.206D-05 0.163D-05
 Coeff-Com:  0.298D-05-0.342D-04-0.535D-03-0.133D-02-0.116D-02-0.136D-02
 Coeff-Com:  0.369D-01 0.176D+00 0.792D+00
 Coeff:      0.316D-07-0.442D-07 0.209D-06 0.318D-06 0.206D-05 0.163D-05
 Coeff:      0.298D-05-0.342D-04-0.535D-03-0.133D-02-0.116D-02-0.136D-02
 Coeff:      0.369D-01 0.176D+00 0.792D+00
 Gap=     0.157 Goal=   None    Shift=    0.000
 RMSDP=2.98D-09 MaxDP=1.57D-07 DE= 1.14D-13 OVMax= 1.07D-08

 SCF Done:  E(RB3LYP) =  -384.974526075     A.U. after   15 cycles
             Convg  =    0.2985D-08             -V/T =  2.0049
 KE= 3.831017803080D+02 PE=-1.689933391628D+03 EE= 5.246659737456D+02
 Leave Link  502 at Tue Dec 14 10:19:42 2021, MaxMem=  498073600 cpu:     698.8
 (Enter /apps/software//g09/l601.exe)
 Copying SCF densities to generalized density rwf, IOpCl= 0 IROHF=0.

 **********************************************************************

            Population analysis using the SCF density.

 **********************************************************************

 Orbital symmetries:
       Occupied  (A) (A) (A) (A) (A) (A) (A) (A) (A) (A) (A) (A)
                 (A) (A) (A) (A) (A) (A) (A) (A) (A) (A) (A) (A)
                 (A) (A) (A) (A) (A) (A) (A) (A)
       Virtual   (A) (A) (A) (A) (A) (A) (A) (A) (A) (A) (A) (A)
                 (A) (A) (A) (A) (A) (A) (A) (A) (A) (A) (A) (A)
                 (A) (A) (A) (A) (A) (A) (A) (A) (A) (A) (A) (A)
                 (A) (A) (A) (A) (A) (A) (A) (A) (A) (A) (A) (A)
                 (A) (A) (A) (A) (A) (A) (A) (A) (A) (A) (A) (A)
                 (A) (A) (A) (A) (A) (A) (A) (A) (A) (A) (A) (A)
                 (A) (A) (A) (A) (A) (A) (A) (A) (A) (A) (A) (A)
                 (A) (A) (A) (A) (A) (A) (A) (A) (A) (A) (A) (A)
                 (A) (A) (A) (A) (A) (A) (A) (A) (A) (A) (A) (A)
                 (A) (A) (A) (A) (A) (A) (A) (A) (A) (A) (A) (A)
                 (A) (A) (A) (A) (A) (A) (A) (A) (A) (A) (A) (A)
                 (A) (A) (A) (A) (A) (A) (A) (A) (A) (A) (A) (A)
                 (A) (A) (A) (A) (A) (A) (A) (A) (A) (A) (A) (A)
                 (A) (A) (A) (A) (A) (A) (A) (A) (A) (A) (A) (A)
                 (A) (A) (A) (A) (A) (A) (A) (A) (A) (A) (A) (A)
                 (A) (A) (A) (A) (A) (A) (A) (A) (A) (A) (A) (A)
                 (A) (A) (A) (A) (A) (A) (A) (A) (A) (A) (A) (A)
                 (A) (A) (A) (A) (A) (A) (A) (A) (A) (A) (A) (A)
                 (A) (A) (A) (A) (A)
 The electronic state is 1-A.
 Alpha  occ. eigenvalues --  -19.10913 -10.27362 -10.21161 -10.20701 -10.20483
 Alpha  occ. eigenvalues --  -10.20146 -10.20069 -10.19851 -10.17063  -1.00200
 Alpha  occ. eigenvalues --   -0.88672  -0.79413  -0.77492  -0.72840  -0.65516
 Alpha  occ. eigenvalues --   -0.63055  -0.57555  -0.52482  -0.48569  -0.47309
 Alpha  occ. eigenvalues --   -0.45826  -0.44784  -0.44464  -0.40511  -0.39824
 Alpha  occ. eigenvalues --   -0.39723  -0.37991  -0.36698  -0.34511  -0.28313
 Alpha  occ. eigenvalues --   -0.27941  -0.24365
 Alpha virt. eigenvalues --   -0.08664  -0.03691  -0.01559  -0.00054   0.00815
 Alpha virt. eigenvalues --    0.01433   0.02367   0.02889   0.03323   0.03974
 Alpha virt. eigenvalues --    0.05575   0.05986   0.06603   0.07220   0.08063
 Alpha virt. eigenvalues --    0.09270   0.09845   0.10158   0.10674   0.11043
 Alpha virt. eigenvalues --    0.11478   0.11825   0.12079   0.12622   0.12690
 Alpha virt. eigenvalues --    0.13554   0.14329   0.14491   0.14905   0.15554
 Alpha virt. eigenvalues --    0.15792   0.16353   0.16858   0.17542   0.17861
 Alpha virt. eigenvalues --    0.18010   0.19394   0.20552   0.21127   0.21147
 Alpha virt. eigenvalues --    0.21497   0.21730   0.23199   0.24037   0.25143
 Alpha virt. eigenvalues --    0.26472   0.27029   0.28307   0.28476   0.29309
 Alpha virt. eigenvalues --    0.30324   0.30526   0.30762   0.32759   0.33318
 Alpha virt. eigenvalues --    0.34272   0.35370   0.35690   0.39023   0.40295
 Alpha virt. eigenvalues --    0.42013   0.44825   0.45537   0.47894   0.50249
 Alpha virt. eigenvalues --    0.51572   0.52760   0.52807   0.54564   0.54762
 Alpha virt. eigenvalues --    0.54806   0.56289   0.56733   0.59136   0.59702
 Alpha virt. eigenvalues --    0.60755   0.62239   0.63116   0.64238   0.64912
 Alpha virt. eigenvalues --    0.65215   0.68043   0.68569   0.69499   0.71190
 Alpha virt. eigenvalues --    0.72361   0.74576   0.75555   0.80834   0.81117
 Alpha virt. eigenvalues --    0.81897   0.83530   0.85431   0.86383   0.87268
 Alpha virt. eigenvalues --    0.88598   0.89848   0.92557   0.92901   0.95731
 Alpha virt. eigenvalues --    0.97657   0.98180   1.01028   1.01876   1.05594
 Alpha virt. eigenvalues --    1.05784   1.06745   1.07738   1.11278   1.12126
 Alpha virt. eigenvalues --    1.21669   1.21956   1.24712   1.29150   1.36094
 Alpha virt. eigenvalues --    1.42859   1.44794   1.45169   1.47857   1.48544
 Alpha virt. eigenvalues --    1.49101   1.50204   1.52282   1.54883   1.55235
 Alpha virt. eigenvalues --    1.55332   1.57282   1.62112   1.63339   1.64126
 Alpha virt. eigenvalues --    1.66135   1.67944   1.68501   1.72020   1.72405
 Alpha virt. eigenvalues --    1.75297   1.75658   1.81845   1.83603   1.85326
 Alpha virt. eigenvalues --    1.90661   1.90765   1.91980   1.92178   1.93285
 Alpha virt. eigenvalues --    1.93915   1.95812   1.96810   2.01736   2.04825
 Alpha virt. eigenvalues --    2.05970   2.08997   2.16106   2.17309   2.22833
 Alpha virt. eigenvalues --    2.29059   2.33456   2.35324   2.41775   2.42476
 Alpha virt. eigenvalues --    2.43617   2.44367   2.47588   2.50420   2.55094
 Alpha virt. eigenvalues --    2.56239   2.60712   2.64195   2.64407   2.66865
 Alpha virt. eigenvalues --    2.68934   2.70456   2.70496   2.71046   2.71757
 Alpha virt. eigenvalues --    2.74496   2.77584   2.78448   2.82063   2.82542
 Alpha virt. eigenvalues --    2.86339   2.86660   2.89331   2.92450   2.92905
 Alpha virt. eigenvalues --    2.94964   3.04079   3.05940   3.12215   3.16224
 Alpha virt. eigenvalues --    3.21681   3.27970   3.32881   3.33672   3.34961
 Alpha virt. eigenvalues --    3.46959   3.49866   3.57429   3.62221   3.74022
 Alpha virt. eigenvalues --    3.81119   3.81732   3.98046   4.02017   4.12736
 Alpha virt. eigenvalues --    4.13870   4.18621   4.38937   4.81964   5.05079
 Alpha virt. eigenvalues --    5.23525   5.67051  23.57693  23.77868  23.93294
 Alpha virt. eigenvalues --   23.94084  23.96623  24.04285  24.08112  24.16806
 Alpha virt. eigenvalues --   49.95233
          Condensed to atoms (all electrons):
              1          2          3          4          5          6
     1  C    5.885454   0.313039  -0.186946   0.657894  -0.683358  -0.105158
     2  C    0.313039   5.872456   0.407867   0.148518  -0.181098  -0.721416
     3  C   -0.186946   0.407867   6.032688   0.421138  -0.733883   0.544655
     4  C    0.657894   0.148518   0.421138  11.875896   0.233661  -4.473186
     5  C   -0.683358  -0.181098  -0.733883   0.233661  14.594942  -0.814925
     6  C   -0.105158  -0.721416   0.544655  -4.473186  -0.814925  10.235360
     7  C    0.180234   0.133218  -0.050558  -0.653283  -7.427709  -0.230508
     8  O    0.008869  -0.007886  -0.009496  -0.168302  -0.144862   0.248463
     9  C    0.022296  -0.190449  -0.252242  -1.618413  -0.427936   0.762061
    10  H   -0.117443  -0.007809   0.012300   0.016843   0.066219   0.403733
    11  H    0.442053  -0.060625   0.011235  -0.004301  -0.014832  -0.068538
    12  H   -0.069392   0.500879  -0.079021  -0.008622   0.028963  -0.030329
    13  H    0.000225  -0.070683   0.412623  -0.096308   0.040365   0.035500
    14  H    0.028828   0.013598  -0.057751   0.516211  -0.123912  -0.047502
    15  H    0.003240   0.000435  -0.005802   0.013661  -0.094892  -0.005372
    16  H   -0.001552   0.004308   0.004414   0.026699   0.020537  -0.007299
    17  H   -0.001582   0.004353   0.004530   0.026964   0.020612  -0.007349
              7          8          9         10         11         12
     1  C    0.180234   0.008869   0.022296  -0.117443   0.442053  -0.069392
     2  C    0.133218  -0.007886  -0.190449  -0.007809  -0.060625   0.500879
     3  C   -0.050558  -0.009496  -0.252242   0.012300   0.011235  -0.079021
     4  C   -0.653283  -0.168302  -1.618413   0.016843  -0.004301  -0.008622
     5  C   -7.427709  -0.144862  -0.427936   0.066219  -0.014832   0.028963
     6  C   -0.230508   0.248463   0.762061   0.403733  -0.068538  -0.030329
     7  C   14.876672   0.425281  -0.545998  -0.049771   0.009363  -0.009427
     8  O    0.425281   8.121922  -0.209743  -0.000259   0.001600  -0.000149
     9  C   -0.545998  -0.209743   7.842422   0.009761   0.006172  -0.004875
    10  H   -0.049771  -0.000259   0.009761   0.475919  -0.011789   0.000093
    11  H    0.009363   0.001600   0.006172  -0.011789   0.527016  -0.016230
    12  H   -0.009427  -0.000149  -0.004875   0.000093  -0.016230   0.540510
    13  H   -0.013220   0.000318   0.010646   0.001025   0.000187  -0.016407
    14  H    0.043783  -0.002118  -0.034281  -0.002427   0.000647   0.000248
    15  H    0.102153  -0.018895   0.366479  -0.001047   0.000024  -0.000040
    16  H   -0.026753   0.009920   0.314082   0.000131  -0.000191   0.000049
    17  H   -0.026824   0.010037   0.313414   0.000137  -0.000193   0.000050
             13         14         15         16         17
     1  C    0.000225   0.028828   0.003240  -0.001552  -0.001582
     2  C   -0.070683   0.013598   0.000435   0.004308   0.004353
     3  C    0.412623  -0.057751  -0.005802   0.004414   0.004530
     4  C   -0.096308   0.516211   0.013661   0.026699   0.026964
     5  C    0.040365  -0.123912  -0.094892   0.020537   0.020612
     6  C    0.035500  -0.047502  -0.005372  -0.007299  -0.007349
     7  C   -0.013220   0.043783   0.102153  -0.026753  -0.026824
     8  O    0.000318  -0.002118  -0.018895   0.009920   0.010037
     9  C    0.010646  -0.034281   0.366479   0.314082   0.313414
    10  H    0.001025  -0.002427  -0.001047   0.000131   0.000137
    11  H    0.000187   0.000647   0.000024  -0.000191  -0.000193
    12  H   -0.016407   0.000248  -0.000040   0.000049   0.000050
    13  H    0.528451  -0.014978  -0.000196  -0.000009  -0.000013
    14  H   -0.014978   0.522055   0.003776  -0.001949  -0.001908
    15  H   -0.000196   0.003776   0.471959  -0.018907  -0.018989
    16  H   -0.000009  -0.001949  -0.018907   0.589731  -0.052300
    17  H   -0.000013  -0.001908  -0.018989  -0.052300   0.590143
 Mulliken atomic charges:
              1
     1  C   -0.376701
     2  C   -0.158704
     3  C   -0.475751
     4  C   -0.915070
     5  C    1.642109
     6  C    0.281808
     7  C   -0.736652
     8  O   -0.264701
     9  C   -0.363395
    10  H    0.204383
    11  H    0.178401
    12  H    0.163701
    13  H    0.182473
    14  H    0.157681
    15  H    0.202412
    16  H    0.139090
    17  H    0.138916
 Sum of Mulliken atomic charges =   0.00000
 Mulliken charges with hydrogens summed into heavy atoms:
              1
     1  C   -0.198300
     2  C    0.004997
     3  C   -0.293278
     4  C   -0.757389
     5  C    1.642109
     6  C    0.486191
     7  C   -0.736652
     8  O   -0.264701
     9  C    0.117023
 Sum of Mulliken charges with hydrogens summed into heavy atoms =   0.00000
 Electronic spatial extent (au):  <R**2>=           1277.0469
 Charge=              0.0000 electrons
 Dipole moment (field-independent basis, Debye):
    X=              3.4098    Y=              2.4721    Z=             -0.0003  Tot=              4.2116
 Quadrupole moment (field-independent basis, Debye-Ang):
   XX=            -53.9249   YY=            -51.6805   ZZ=            -56.1344
   XY=             -7.1306   XZ=              0.0012   YZ=              0.0002
 Traceless Quadrupole moment (field-independent basis, Debye-Ang):
   XX=             -0.0116   YY=              2.2328   ZZ=             -2.2212
   XY=             -7.1306   XZ=              0.0012   YZ=              0.0002
 Octapole moment (field-independent basis, Debye-Ang**2):
  XXX=             28.1860  YYY=              0.5928  ZZZ=              0.0027  XYY=             13.4347
  XXY=             16.6626  XXZ=             -0.0007  XZZ=             -8.8632  YZZ=             -0.5535
  YYZ=             -0.0002  XYZ=             -0.0042
 Hexadecapole moment (field-independent basis, Debye-Ang**3):
 XXXX=          -1190.3047 YYYY=           -408.8662 ZZZZ=            -71.0396 XXXY=            -37.4731
 XXXZ=              0.0154 YYYX=             -3.0959 YYYZ=              0.0120 ZZZX=             -0.0028
 ZZZY=              0.0209 XXYY=           -287.1417 XXZZ=           -230.5084 YYZZ=            -88.1150
 XXYZ=              0.0103 YYXZ=              0.0010 ZZXY=              0.6658
 N-N= 3.971911114989D+02 E-N=-1.689933391558D+03  KE= 3.831017803080D+02
 No NMR shielding tensors so no spin-rotation constants.
 Leave Link  601 at Tue Dec 14 10:19:42 2021, MaxMem=  498073600 cpu:       2.1
 (Enter /apps/software//g09/l701.exe)
 Compute integral first derivatives.
 ... and contract with generalized density number  0.
 Leave Link  701 at Tue Dec 14 10:19:43 2021, MaxMem=  498073600 cpu:       1.7
 (Enter /apps/software//g09/l702.exe)
 L702 exits ... SP integral derivatives will be done elsewhere.
 Leave Link  702 at Tue Dec 14 10:19:43 2021, MaxMem=  498073600 cpu:       0.1
 (Enter /apps/software//g09/l703.exe)
 Compute integral first derivatives, UseDBF=F ICtDFT=           0.
 Integral derivatives from FoFDir, PRISM(SPDF).
 Calling FoFJK, ICntrl=      2127 FMM=F ISym2X=0 I1Cent= 0 IOpClX= 0 NMat=1 NMatS=1 NMatT=0.
 FoFCou: FMM=F IPFlag=           0 FMFlag=      100000 FMFlg1=         800
         NFxFlg=           0 DoJE=F BraDBF=F KetDBF=F FulRan=T
         Omega=  0.000000  0.000000  1.000000  0.000000  0.000000 ICntrl=    2127 IOpCl=  0
         NMat0=    1 NMatS0=    1 NMatT0=    0 NMatD0=    1 NMtDS0=    0 NMtDT0=    0
         I1Cent=           0 NGrid=           0.
 Symmetry not used in FoFCou.
 Leave Link  703 at Tue Dec 14 10:20:06 2021, MaxMem=  498073600 cpu:     139.2
 (Enter /apps/software//g09/l716.exe)
 Dipole        = 1.34150462D+00 9.72599876D-01-1.15254174D-04
 ***** Axes restored to original set *****
 -------------------------------------------------------------------
 Center     Atomic                   Forces (Hartrees/Bohr)
 Number     Number              X              Y              Z
 -------------------------------------------------------------------
      1        6          -0.001086378    0.000925997    0.000000949
      2        6           0.001703347    0.001654995   -0.000000376
      3        6           0.002158785   -0.002000170    0.000001968
      4        6          -0.000127774   -0.003879155   -0.000002371
      5        6          -0.000745998    0.015855128   -0.000013061
      6        6           0.000854115    0.002339172   -0.000001017
      7        6           0.118447998    0.041387104    0.000093810
      8        8          -0.092318315   -0.029654059   -0.000043360
      9        6          -0.020866179   -0.015197073   -0.000050439
     10        1           0.002098331   -0.001186459   -0.000000426
     11        1          -0.000102921   -0.000117131    0.000000223
     12        1          -0.000131358   -0.000079875   -0.000000158
     13        1           0.000145980    0.000098123    0.000000210
     14        1          -0.000081464    0.000346068   -0.000000492
     15        1          -0.008605131    0.005302981    0.000002394
     16        1          -0.000679534   -0.007889422   -0.001653145
     17        1          -0.000663505   -0.007906224    0.001665290
 -------------------------------------------------------------------
 Cartesian Forces:  Max     0.118447998 RMS     0.022726036
 Leave Link  716 at Tue Dec 14 10:20:07 2021, MaxMem=  498073600 cpu:       0.1
 (Enter /apps/software//g09/l103.exe)

 GradGradGradGradGradGradGradGradGradGradGradGradGradGradGradGradGradGrad
 Berny optimization.
 Internal  Forces:  Max     0.079031583 RMS     0.014731609
 Search for a local minimum.
 Step number   1 out of a maximum of   88
 All quantities printed in internal units (Hartrees-Bohrs-Radians)
 RMS Force = .14732D-01 SwitMx=.10000D-02 MixMth= 1
 Mixed Optimization -- RFO/linear search
 Second derivative matrix not updated -- first step.
     Eigenvalues ---    0.00230   0.00741   0.01170   0.01778   0.02058
     Eigenvalues ---    0.02118   0.02128   0.02156   0.02164   0.02179
     Eigenvalues ---    0.02184   0.02203   0.07040   0.07169   0.16000
     Eigenvalues ---    0.16000   0.16000   0.16000   0.16000   0.16000
     Eigenvalues ---    0.16000   0.16000   0.22000   0.22000   0.23472
     Eigenvalues ---    0.25000   0.25000   0.25000   0.28437   0.34388
     Eigenvalues ---    0.34565   0.34566   0.35501   0.35504   0.35507
     Eigenvalues ---    0.35536   0.35606   0.35802   0.41666   0.42100
     Eigenvalues ---    0.45485   0.45885   0.46713   0.47332   0.66020
     Eigenvalues --- 1000.000001000.000001000.000001000.000001000.00000
     Eigenvalues --- 1000.000001000.000001000.000001000.000001000.00000
     Eigenvalues --- 1000.000001000.000001000.000001000.000001000.00000
     Eigenvalues --- 1000.000001000.000001000.000001000.000001000.00000
     Eigenvalues --- 1000.000001000.000001000.000001000.000001000.00000
     Eigenvalues --- 1000.000001000.000001000.000001000.000001000.00000
     Eigenvalues --- 1000.000001000.000001000.00000
 RFO step:  Lambda=-4.54779696D-02 EMin= 2.30000000D-03
 Linear search not attempted -- first point.
 Maximum step size (   0.300) exceeded in Quadratic search.
    -- Step size scaled by   0.804
 Iteration  1 RMS(Cart)=  0.05560413 RMS(Int)=  0.00399153
 Iteration  2 RMS(Cart)=  0.00446687 RMS(Int)=  0.00009079
 Iteration  3 RMS(Cart)=  0.00000756 RMS(Int)=  0.00009067
 Iteration  4 RMS(Cart)=  0.00000000 RMS(Int)=  0.00009067
 Variable       Old X    -DE/DX   Delta X   Delta X   Delta X     New X
                                 (Linear)    (Quad)   (Total)
    R1        2.63973   0.00076   0.00000   0.00123   0.00123   2.64096
    R2        2.62293  -0.00032   0.00000  -0.00051  -0.00051   2.62242
    R3        2.04865  -0.00004   0.00000  -0.00007  -0.00007   2.04857
    R4        2.62956   0.00252   0.00000   0.00397   0.00397   2.63353
    R5        2.04814   0.00014   0.00000   0.00028   0.00028   2.04842
    R6        2.63493  -0.00240   0.00000  -0.00376  -0.00376   2.63118
    R7        2.04860  -0.00015   0.00000  -0.00029  -0.00029   2.04831
    R8        2.64624   0.00126   0.00000   0.00200   0.00200   2.64824
    R9        2.04701  -0.00033   0.00000  -0.00066  -0.00066   2.04636
   R10        2.65757  -0.00169   0.00000  -0.00280  -0.00280   2.65476
   R11        2.77692  -0.00626   0.00000  -0.01248  -0.01248   2.76445
   R12        2.04869  -0.00025   0.00000  -0.00051  -0.00051   2.04818
   R13        2.46472  -0.07903   0.00000  -0.09007  -0.09007   2.37466
   R14        2.91193   0.00009   0.00000   0.00022   0.00022   2.91215
   R15        2.06680  -0.00654   0.00000  -0.01350  -0.01350   2.05330
   R16        2.06386   0.00307   0.00000   0.00631   0.00631   2.07017
   R17        2.06386   0.00307   0.00000   0.00632   0.00632   2.07018
    A1        2.10058  -0.00161   0.00000  -0.00465  -0.00465   2.09593
    A2        2.09508   0.00064   0.00000   0.00169   0.00169   2.09677
    A3        2.08752   0.00097   0.00000   0.00296   0.00296   2.09048
    A4        2.08632   0.00222   0.00000   0.00709   0.00708   2.09341
    A5        2.09786  -0.00104   0.00000  -0.00326  -0.00325   2.09461
    A6        2.09900  -0.00119   0.00000  -0.00383  -0.00383   2.09517
    A7        2.09952  -0.00086   0.00000  -0.00227  -0.00227   2.09725
    A8        2.09694   0.00053   0.00000   0.00154   0.00154   2.09848
    A9        2.08672   0.00033   0.00000   0.00074   0.00074   2.08745
   A10        2.10502  -0.00236   0.00000  -0.00698  -0.00697   2.09805
   A11        2.08180   0.00132   0.00000   0.00404   0.00403   2.08583
   A12        2.09637   0.00104   0.00000   0.00294   0.00294   2.09931
   A13        2.07048   0.00407   0.00000   0.01112   0.01113   2.08161
   A14        2.11370  -0.00009   0.00000  -0.00029  -0.00029   2.11341
   A15        2.09901  -0.00397   0.00000  -0.01084  -0.01084   2.08817
   A16        2.10444  -0.00146   0.00000  -0.00432  -0.00432   2.10013
   A17        2.09186   0.00318   0.00000   0.01176   0.01176   2.10362
   A18        2.08688  -0.00172   0.00000  -0.00744  -0.00744   2.07944
   A19        2.32863  -0.05976   0.00000  -0.16264  -0.16264   2.16599
   A20        2.14746  -0.01896   0.00000  -0.05160  -0.05160   2.09586
   A21        1.80710   0.07872   0.00000   0.21424   0.21424   2.02134
   A22        1.94838  -0.01278   0.00000  -0.04863  -0.04828   1.90010
   A23        1.90896   0.00734   0.00000   0.02804   0.02807   1.93703
   A24        1.90892   0.00738   0.00000   0.02822   0.02826   1.93718
   A25        1.88248   0.00315   0.00000   0.01369   0.01403   1.89651
   A26        1.88248   0.00314   0.00000   0.01369   0.01403   1.89650
   A27        1.93262  -0.00867   0.00000  -0.03669  -0.03695   1.89568
    D1        0.00000   0.00000   0.00000   0.00000   0.00000   0.00000
    D2       -3.14159   0.00000   0.00000   0.00000   0.00000  -3.14159
    D3        3.14159   0.00000   0.00000   0.00000   0.00000  -3.14159
    D4        0.00000   0.00000   0.00000   0.00000   0.00000   0.00000
    D5        0.00000   0.00000   0.00000   0.00000   0.00000   0.00000
    D6        3.14159   0.00000   0.00000   0.00000   0.00001  -3.14159
    D7       -3.14159   0.00000   0.00000   0.00000   0.00000  -3.14159
    D8        0.00000   0.00000   0.00000   0.00000   0.00000   0.00000
    D9        0.00000   0.00000   0.00000   0.00000   0.00000   0.00000
   D10        3.14159   0.00000   0.00000   0.00000   0.00000   3.14159
   D11        3.14159   0.00000   0.00000   0.00000   0.00000   3.14159
   D12       -0.00001   0.00000   0.00000   0.00000   0.00000  -0.00001
   D13       -0.00001   0.00000   0.00000   0.00001   0.00001   0.00000
   D14        3.14159   0.00000   0.00000   0.00000   0.00000   3.14159
   D15        3.14159   0.00000   0.00000   0.00001   0.00001  -3.14159
   D16        0.00000   0.00000   0.00000   0.00000   0.00000  -0.00001
   D17        0.00001   0.00000   0.00000  -0.00001  -0.00001   0.00000
   D18       -3.14157   0.00000   0.00000  -0.00002  -0.00002  -3.14159
   D19       -3.14158   0.00000   0.00000   0.00000   0.00000  -3.14158
   D20        0.00002   0.00000   0.00000  -0.00001  -0.00001   0.00001
   D21       -0.00001   0.00000   0.00000   0.00001   0.00001   0.00000
   D22        3.14159   0.00000   0.00000   0.00000   0.00000   3.14159
   D23        3.14157   0.00000   0.00000   0.00002   0.00002   3.14159
   D24       -0.00001   0.00000   0.00000   0.00001   0.00001   0.00000
   D25       -3.14123  -0.00002   0.00000  -0.00019  -0.00017  -3.14140
   D26       -0.00031   0.00002   0.00000   0.00020   0.00018  -0.00013
   D27        0.00037  -0.00002   0.00000  -0.00020  -0.00018   0.00019
   D28        3.14129   0.00002   0.00000   0.00019   0.00017   3.14146
   D29        3.14115   0.00001   0.00000  -0.00006  -0.00007   3.14108
   D30       -1.06008   0.00072   0.00000   0.00484   0.00459  -1.05549
   D31        1.05922  -0.00072   0.00000  -0.00507  -0.00485   1.05438
   D32       -0.00095   0.00000   0.00000   0.00013   0.00014  -0.00081
   D33        2.08100   0.00072   0.00000   0.00503   0.00480   2.08580
   D34       -2.08288  -0.00073   0.00000  -0.00489  -0.00464  -2.08751
         Item               Value     Threshold  Converged?
 Maximum Force            0.079032     0.000450     NO 
 RMS     Force            0.014732     0.000300     NO 
 Maximum Displacement     0.368277     0.001800     NO 
 RMS     Displacement     0.057119     0.001200     NO 
 Predicted change in Energy=-2.391300D-02
 GradGradGradGradGradGradGradGradGradGradGradGradGradGradGradGradGradGrad

 Leave Link  103 at Tue Dec 14 10:20:07 2021, MaxMem=  498073600 cpu:       0.3
 (Enter /apps/software//g09/l202.exe)
                          Input orientation:                          
 ---------------------------------------------------------------------
 Center     Atomic      Atomic             Coordinates (Angstroms)
 Number     Number       Type             X           Y           Z
 ---------------------------------------------------------------------
      1          6           0       -1.953690    1.108884    0.000124
      2          6           0       -2.515167   -0.170903    0.000026
      3          6           0       -1.688797   -1.293062   -0.000097
      4          6           0       -0.304594   -1.142577   -0.000126
      5          6           0        0.265505    0.137608   -0.000032
      6          6           0       -0.574614    1.263565    0.000095
      7          6           0        1.717218    0.318034   -0.000062
      8          8           0        2.288046    1.437513    0.000221
      9          6           0        2.648256   -0.909967   -0.000027
     10          1           0       -0.131546    2.252718    0.000172
     11          1           0       -2.593566    1.983951    0.000222
     12          1           0       -3.592549   -0.290300    0.000044
     13          1           0       -2.119232   -2.287851   -0.000170
     14          1           0        0.327529   -2.021816   -0.000215
     15          1           0        3.679860   -0.568785   -0.000588
     16          1           0        2.483616   -1.527066    0.890014
     17          1           0        2.482914   -1.527847   -0.889405
 ---------------------------------------------------------------------
                    Distance matrix (angstroms):
                    1          2          3          4          5
     1  C    0.000000
     2  C    1.397538   0.000000
     3  C    2.416508   1.393602   0.000000
     4  C    2.790806   2.414701   1.392358   0.000000
     5  C    2.422438   2.797734   2.422005   1.401387   0.000000
     6  C    1.387724   2.413181   2.788860   2.421245   1.404841
     7  C    3.755132   4.260533   3.767833   2.494215   1.462882
     8  O    4.254448   5.065358   4.824035   3.657683   2.404252
     9  C    5.025303   5.216047   4.353939   2.961998   2.602866
    10  H    2.151410   3.399351   3.872671   3.399702   2.152055
    11  H    1.084058   2.156279   3.399620   3.874863   3.403420
    12  H    2.154896   1.083978   2.151698   3.396619   3.881712
    13  H    3.400767   2.153656   1.083919   2.145824   3.401444
    14  H    3.873661   3.392168   2.143981   1.082886   2.160315
    15  H    5.878049   6.207790   5.417291   4.025557   3.486661
    16  H    5.237349   5.255386   4.272713   2.951999   2.912617
    17  H    5.237087   5.254826   4.271904   2.951179   2.912323
                    6          7          8          9         10
     6  C    0.000000
     7  C    2.479218   0.000000
     8  O    2.867940   1.256613   0.000000
     9  C    3.887303   1.541044   2.374955   0.000000
    10  H    1.083851   2.675991   2.553230   4.210685   0.000000
    11  H    2.143624   4.621487   4.912101   5.987609   2.476647
    12  H    3.394470   5.344502   6.129171   6.271493   4.294820
    13  H    3.872777   4.637778   5.770826   4.962611   4.956577
    14  H    3.406992   2.721422   3.976253   2.573321   4.299115
    15  H    4.632283   2.153697   2.441798   1.086560   4.742119
    16  H    4.234660   2.187234   3.101404   1.095486   4.681629
    17  H    4.234580   2.187349   3.102058   1.095494   4.681818
                   11         12         13         14         15
    11  H    0.000000
    12  H    2.483986   0.000000
    13  H    4.298056   2.482110   0.000000
    14  H    4.957718   4.285459   2.461182   0.000000
    15  H    6.772912   7.277738   6.048525   3.653686   0.000000
    16  H    6.236725   6.264296   4.749466   2.384532   1.772702
    17  H    6.236571   6.263696   4.748484   2.383348   1.772703
                   16         17
    16  H    0.000000
    17  H    1.779419   0.000000
 Stoichiometry    C8H8O
 Framework group  C1[X(C8H8O)]
 Deg. of freedom    45
 Full point group                 C1      NOp   1
 Largest Abelian subgroup         C1      NOp   1
 Largest concise Abelian subgroup C1      NOp   1
                         Standard orientation:                         
 ---------------------------------------------------------------------
 Center     Atomic      Atomic             Coordinates (Angstroms)
 Number     Number       Type             X           Y           Z
 ---------------------------------------------------------------------
      1          6           0        1.982035   -1.130216    0.000105
      2          6           0        2.590526    0.127897    0.000007
      3          6           0        1.806285    1.279893   -0.000116
      4          6           0        0.417459    1.180779   -0.000146
      5          6           0       -0.199664   -0.077413   -0.000052
      6          6           0        0.598176   -1.233713    0.000075
      7          6           0       -1.657064   -0.203947   -0.000082
      8          8           0       -2.268962   -1.301516    0.000201
      9          6           0       -2.541980    1.057694   -0.000046
     10          1           0        0.118776   -2.205777    0.000153
     11          1           0        2.589062   -2.028382    0.000203
     12          1           0        3.671591    0.207309    0.000025
     13          1           0        2.273270    2.258057   -0.000189
     14          1           0       -0.181666    2.082827   -0.000235
     15          1           0       -3.585513    0.754954   -0.000607
     16          1           0       -2.354597    1.668272    0.889994
     17          1           0       -2.353868    1.669027   -0.889425
 ---------------------------------------------------------------------
 Rotational constants (GHZ):      3.6860382      1.2083687      0.9152969
 Leave Link  202 at Tue Dec 14 10:20:07 2021, MaxMem=  498073600 cpu:       0.0
 (Enter /apps/software//g09/l301.exe)
 Standard basis: 6-311++G(d,p) (5D, 7F)
 Ernie: Thresh=  0.10000D-02 Tol=  0.10000D-05 Strict=F.
 There are   254 symmetry adapted basis functions of A   symmetry.
 Integral buffers will be    131072 words long.
 Raffenetti 2 integral format.
 Two-electron integral symmetry is turned on.
   254 basis functions,   396 primitive gaussians,   263 cartesian basis functions
    32 alpha electrons       32 beta electrons
       nuclear repulsion energy       400.2365990152 Hartrees.
 IExCor=  402 DFT=T Ex+Corr=B3LYP ExCW=0 ScaHFX=  0.200000
 ScaDFX=  0.800000  0.720000  1.000000  0.810000 ScalE2=  1.000000  1.000000
 IRadAn=      0 IRanWt=     -1 IRanGd=            0 ICorTp=0
 NAtoms=   17 NActive=   17 NUniq=   17 SFac= 7.50D-01 NAtFMM=   80 NAOKFM=F Big=F
 Leave Link  301 at Tue Dec 14 10:20:07 2021, MaxMem=  498073600 cpu:       0.3
 (Enter /apps/software//g09/l302.exe)
 NPDir=0 NMtPBC=     1 NCelOv=     1 NCel=       1 NClECP=     1 NCelD=      1
         NCelK=      1 NCelE2=     1 NClLst=     1 CellRange=     0.0.
 One-electron integrals computed using PRISM.
 NBasis=   254 RedAO= T  NBF=   254
 NBsUse=   253 1.00D-06 NBFU=   253
 Precomputing XC quadrature grid using
 IXCGrd= 2 IRadAn=           0 IRanWt=          -1 IRanGd=           0 AccXCQ= 1.00D-10.
 NRdTot=    1098 NPtTot=      140532 NUsed=      148452 NTot=      148484
 NSgBfM=   263   263   263   263   263 NAtAll=    17    17.
 Leave Link  302 at Tue Dec 14 10:20:07 2021, MaxMem=  498073600 cpu:       2.9
 (Enter /apps/software//g09/l303.exe)
 DipDrv:  MaxL=1.
 Leave Link  303 at Tue Dec 14 10:20:07 2021, MaxMem=  498073600 cpu:       0.2
 (Enter /apps/software//g09/l401.exe)
 Initial guess read from the read-write file.
 B after Tr=     0.000000    0.000000    0.000000
         Rot=    1.000000    0.000000    0.000000    0.000000 Ang=   0.00 deg.
 Guess basis will be translated and rotated to current coordinates.
 Initial guess orbital symmetries:
       Occupied  (A) (A) (A) (A) (A) (A) (A) (A) (A) (A) (A) (A)
                 (A) (A) (A) (A) (A) (A) (A) (A) (A) (A) (A) (A)
                 (A) (A) (A) (A) (A) (A) (A) (A)
       Virtual   (A) (A) (A) (A) (A) (A) (A) (A) (A) (A) (A) (A)
                 (A) (A) (A) (A) (A) (A) (A) (A) (A) (A) (A) (A)
                 (A) (A) (A) (A) (A) (A) (A) (A) (A) (A) (A) (A)
                 (A) (A) (A) (A) (A) (A) (A) (A) (A) (A) (A) (A)
                 (A) (A) (A) (A) (A) (A) (A) (A) (A) (A) (A) (A)
                 (A) (A) (A) (A) (A) (A) (A) (A) (A) (A) (A) (A)
                 (A) (A) (A) (A) (A) (A) (A) (A) (A) (A) (A) (A)
                 (A) (A) (A) (A) (A) (A) (A) (A) (A) (A) (A) (A)
                 (A) (A) (A) (A) (A) (A) (A) (A) (A) (A) (A) (A)
                 (A) (A) (A) (A) (A) (A) (A) (A) (A) (A) (A) (A)
                 (A) (A) (A) (A) (A) (A) (A) (A) (A) (A) (A) (A)
                 (A) (A) (A) (A) (A) (A) (A) (A) (A) (A) (A) (A)
                 (A) (A) (A) (A) (A) (A) (A) (A) (A) (A) (A) (A)
                 (A) (A) (A) (A) (A) (A) (A) (A) (A) (A) (A) (A)
                 (A) (A) (A) (A) (A) (A) (A) (A) (A) (A) (A) (A)
                 (A) (A) (A) (A) (A) (A) (A) (A) (A) (A) (A) (A)
                 (A) (A) (A) (A) (A) (A) (A) (A) (A) (A) (A) (A)
                 (A) (A) (A) (A) (A) (A) (A) (A) (A) (A) (A) (A)
                 (A) (A) (A) (A) (A)
 The electronic state of the initial guess is 1-A.
 Generating alternative initial guess.
 Harris functional with IExCor=  402 diagonalized for initial guess.
 ExpMin= 3.60D-02 ExpMax= 8.59D+03 ExpMxC= 1.30D+03 IAcc=3 IRadAn=         0 AccDes= 0.00D+00
 HarFok:  IExCor=  402 AccDes= 0.00D+00 IRadAn=         0 IDoV= 1
 ScaDFX=  1.000000  1.000000  1.000000  1.000000
 FoFCou: FMM=F IPFlag=           0 FMFlag=      100000 FMFlg1=           0
         NFxFlg=           0 DoJE=T BraDBF=F KetDBF=T FulRan=T
         Omega=  0.000000  0.000000  1.000000  0.000000  0.000000 ICntrl=     500 IOpCl=  0
         NMat0=    1 NMatS0=    1 NMatT0=    0 NMatD0=    1 NMtDS0=    0 NMtDT0=    0
         I1Cent=           4 NGrid=           0.
 Petite list used in FoFCou.
 Harris En= -385.075714165329    
 Leave Link  401 at Tue Dec 14 10:20:10 2021, MaxMem=  498073600 cpu:      13.0
 (Enter /apps/software//g09/l502.exe)
 Closed shell SCF:
 Requested convergence on RMS density matrix=1.00D-08 within 128 cycles.
 Requested convergence on MAX density matrix=1.00D-06.
 Requested convergence on             energy=1.00D-06.
 No special actions if energy rises.
 Using DIIS extrapolation, IDIIS=  1040.
 Integral symmetry usage will be decided dynamically.
       148286 words used for storage of precomputed grid.
 IEnd=      377477 IEndB=      377477 NGot=   498073600 MDV=   497782196
 LenX=   497782196 LenY=   497712586
 Fock matrices will be formed incrementally for  20 cycles.

 Cycle   1  Pass 1  IDiag  1:
 FoFCou: FMM=F IPFlag=           0 FMFlag=      100000 FMFlg1=           0
         NFxFlg=           0 DoJE=F BraDBF=F KetDBF=F FulRan=T
         Omega=  0.000000  0.000000  1.000000  0.000000  0.000000 ICntrl=       0 IOpCl=  0
         NMat0=    1 NMatS0=    1 NMatT0=    0 NMatD0=    1 NMtDS0=    0 NMtDT0=    0
         I1Cent=           0 NGrid=           0.
 Symmetry not used in FoFCou.
 E= -384.979851598050    
 DIIS: error= 6.69D-03 at cycle   1 NSaved=   1.
 NSaved= 1 IEnMin= 1 EnMin= -384.979851598050     IErMin= 1 ErrMin= 6.69D-03
 ErrMax= 6.69D-03 EMaxC= 1.00D-01 BMatC= 1.38D-02 BMatP= 1.38D-02
 IDIUse=3 WtCom= 9.33D-01 WtEn= 6.69D-02
 Coeff-Com:  0.100D+01
 Coeff-En:   0.100D+01
 Coeff:      0.100D+01
 Gap=     0.191 Goal=   None    Shift=    0.000
 GapD=    0.191 DampG=1.000 DampE=1.000 DampFc=1.0000 IDamp=-1.
 RMSDP=1.56D-02 MaxDP=7.01D-01              OVMax= 5.92D-02

 Cycle   2  Pass 1  IDiag  1:
 RMSU=  7.06D-03    CP:  7.44D-01
 E= -384.997207896355     Delta-E=       -0.017356298305 Rises=F Damp=F
 DIIS: error= 2.64D-03 at cycle   2 NSaved=   2.
 NSaved= 2 IEnMin= 2 EnMin= -384.997207896355     IErMin= 2 ErrMin= 2.64D-03
 ErrMax= 2.64D-03 EMaxC= 1.00D-01 BMatC= 1.06D-03 BMatP= 1.38D-02
 IDIUse=3 WtCom= 9.74D-01 WtEn= 2.64D-02
 Coeff-Com:  0.683D-01 0.932D+00
 Coeff-En:   0.000D+00 0.100D+01
 Coeff:      0.665D-01 0.933D+00
 Gap=     0.171 Goal=   None    Shift=    0.000
 RMSDP=1.55D-03 MaxDP=6.54D-02 DE=-1.74D-02 OVMax= 2.17D-02

 Cycle   3  Pass 1  IDiag  1:
 RMSU=  8.47D-04    CP:  7.51D-01  9.07D-01
 E= -384.996187446103     Delta-E=        0.001020450252 Rises=F Damp=F
 DIIS: error= 5.35D-03 at cycle   3 NSaved=   3.
 NSaved= 3 IEnMin= 2 EnMin= -384.997207896355     IErMin= 2 ErrMin= 2.64D-03
 ErrMax= 5.35D-03 EMaxC= 1.00D-01 BMatC= 2.34D-03 BMatP= 1.06D-03
 IDIUse=3 WtCom= 1.20D-01 WtEn= 8.80D-01
 Coeff-Com: -0.159D-01 0.615D+00 0.401D+00
 Coeff-En:   0.000D+00 0.681D+00 0.319D+00
 Coeff:     -0.191D-02 0.673D+00 0.329D+00
 Gap=     0.179 Goal=   None    Shift=    0.000
 RMSDP=7.87D-04 MaxDP=3.68D-02 DE= 1.02D-03 OVMax= 1.53D-02

 Cycle   4  Pass 1  IDiag  1:
 RMSU=  3.35D-04    CP:  7.42D-01  9.39D-01  7.22D-01
 E= -384.997924700397     Delta-E=       -0.001737254294 Rises=F Damp=F
 DIIS: error= 6.63D-04 at cycle   4 NSaved=   4.
 NSaved= 4 IEnMin= 4 EnMin= -384.997924700397     IErMin= 4 ErrMin= 6.63D-04
 ErrMax= 6.63D-04 EMaxC= 1.00D-01 BMatC= 5.44D-05 BMatP= 1.06D-03
 IDIUse=3 WtCom= 9.93D-01 WtEn= 6.63D-03
 Coeff-Com: -0.163D-01 0.230D+00 0.146D+00 0.641D+00
 Coeff-En:   0.000D+00 0.000D+00 0.000D+00 0.100D+01
 Coeff:     -0.162D-01 0.229D+00 0.145D+00 0.643D+00
 Gap=     0.179 Goal=   None    Shift=    0.000
 RMSDP=2.21D-04 MaxDP=1.16D-02 DE=-1.74D-03 OVMax= 2.50D-03

 Cycle   5  Pass 1  IDiag  1:
 RMSU=  1.17D-04    CP:  7.42D-01  9.52D-01  6.63D-01  9.63D-01
 E= -384.997959297683     Delta-E=       -0.000034597286 Rises=F Damp=F
 DIIS: error= 2.86D-04 at cycle   5 NSaved=   5.
 NSaved= 5 IEnMin= 5 EnMin= -384.997959297683     IErMin= 5 ErrMin= 2.86D-04
 ErrMax= 2.86D-04 EMaxC= 1.00D-01 BMatC= 1.30D-05 BMatP= 5.44D-05
 IDIUse=3 WtCom= 9.97D-01 WtEn= 2.86D-03
 Coeff-Com: -0.646D-02 0.807D-01 0.521D-01 0.366D+00 0.508D+00
 Coeff-En:   0.000D+00 0.000D+00 0.000D+00 0.206D+00 0.794D+00
 Coeff:     -0.644D-02 0.804D-01 0.520D-01 0.366D+00 0.508D+00
 Gap=     0.179 Goal=   None    Shift=    0.000
 RMSDP=8.09D-05 MaxDP=3.75D-03 DE=-3.46D-05 OVMax= 1.72D-03

 Cycle   6  Pass 1  IDiag  1:
 RMSU=  4.33D-05    CP:  7.42D-01  9.52D-01  6.47D-01  8.97D-01  7.78D-01
 E= -384.997971965705     Delta-E=       -0.000012668021 Rises=F Damp=F
 DIIS: error= 9.33D-05 at cycle   6 NSaved=   6.
 NSaved= 6 IEnMin= 6 EnMin= -384.997971965705     IErMin= 6 ErrMin= 9.33D-05
 ErrMax= 9.33D-05 EMaxC= 1.00D-01 BMatC= 7.14D-07 BMatP= 1.30D-05
 IDIUse=1 WtCom= 1.00D+00 WtEn= 0.00D+00
 Coeff-Com: -0.244D-02 0.275D-01 0.180D-01 0.156D+00 0.272D+00 0.529D+00
 Coeff:     -0.244D-02 0.275D-01 0.180D-01 0.156D+00 0.272D+00 0.529D+00
 Gap=     0.179 Goal=   None    Shift=    0.000
 RMSDP=1.38D-05 MaxDP=1.36D-03 DE=-1.27D-05 OVMax= 5.39D-04

 Cycle   7  Pass 1  IDiag  1:
 RMSU=  6.97D-06    CP:  7.42D-01  9.52D-01  6.51D-01  9.08D-01  7.96D-01
                    CP:  9.48D-01
 E= -384.997972634636     Delta-E=       -0.000000668932 Rises=F Damp=F
 DIIS: error= 4.13D-05 at cycle   7 NSaved=   7.
 NSaved= 7 IEnMin= 7 EnMin= -384.997972634636     IErMin= 7 ErrMin= 4.13D-05
 ErrMax= 4.13D-05 EMaxC= 1.00D-01 BMatC= 9.67D-08 BMatP= 7.14D-07
 IDIUse=1 WtCom= 1.00D+00 WtEn= 0.00D+00
 Coeff-Com: -0.274D-03 0.855D-03 0.482D-03 0.261D-01 0.705D-01 0.297D+00
 Coeff-Com:  0.605D+00
 Coeff:     -0.274D-03 0.855D-03 0.482D-03 0.261D-01 0.705D-01 0.297D+00
 Coeff:      0.605D+00
 Gap=     0.179 Goal=   None    Shift=    0.000
 RMSDP=6.80D-06 MaxDP=3.08D-04 DE=-6.69D-07 OVMax= 1.59D-04

 Cycle   8  Pass 1  IDiag  1:
 RMSU=  2.10D-06    CP:  7.42D-01  9.52D-01  6.54D-01  9.15D-01  7.97D-01
                    CP:  9.14D-01  8.42D-01
 E= -384.997972727081     Delta-E=       -0.000000092445 Rises=F Damp=F
 DIIS: error= 1.53D-05 at cycle   8 NSaved=   8.
 NSaved= 8 IEnMin= 8 EnMin= -384.997972727081     IErMin= 8 ErrMin= 1.53D-05
 ErrMax= 1.53D-05 EMaxC= 1.00D-01 BMatC= 1.12D-08 BMatP= 9.67D-08
 IDIUse=1 WtCom= 1.00D+00 WtEn= 0.00D+00
 Coeff-Com:  0.200D-04-0.168D-02-0.112D-02 0.317D-02 0.209D-01 0.131D+00
 Coeff-Com:  0.356D+00 0.492D+00
 Coeff:      0.200D-04-0.168D-02-0.112D-02 0.317D-02 0.209D-01 0.131D+00
 Coeff:      0.356D+00 0.492D+00
 Gap=     0.179 Goal=   None    Shift=    0.000
 RMSDP=2.21D-06 MaxDP=2.14D-04 DE=-9.24D-08 OVMax= 5.08D-05

 Cycle   9  Pass 1  IDiag  1:
 RMSU=  9.96D-07    CP:  7.42D-01  9.52D-01  6.53D-01  9.16D-01  7.99D-01
                    CP:  9.15D-01  7.39D-01  6.85D-01
 E= -384.997972739042     Delta-E=       -0.000000011961 Rises=F Damp=F
 DIIS: error= 1.32D-06 at cycle   9 NSaved=   9.
 NSaved= 9 IEnMin= 9 EnMin= -384.997972739042     IErMin= 9 ErrMin= 1.32D-06
 ErrMax= 1.32D-06 EMaxC= 1.00D-01 BMatC= 2.61D-10 BMatP= 1.12D-08
 IDIUse=1 WtCom= 1.00D+00 WtEn= 0.00D+00
 Coeff-Com:  0.248D-04-0.736D-03-0.499D-03-0.276D-03 0.432D-02 0.326D-01
 Coeff-Com:  0.104D+00 0.203D+00 0.658D+00
 Coeff:      0.248D-04-0.736D-03-0.499D-03-0.276D-03 0.432D-02 0.326D-01
 Coeff:      0.104D+00 0.203D+00 0.658D+00
 Gap=     0.179 Goal=   None    Shift=    0.000
 RMSDP=3.60D-07 MaxDP=2.09D-05 DE=-1.20D-08 OVMax= 6.58D-06

 Cycle  10  Pass 1  IDiag  1:
 RMSU=  1.49D-07    CP:  7.42D-01  9.52D-01  6.53D-01  9.15D-01  7.98D-01
                    CP:  9.17D-01  7.45D-01  6.92D-01  9.90D-01
 E= -384.997972739250     Delta-E=       -0.000000000208 Rises=F Damp=F
 DIIS: error= 6.96D-07 at cycle  10 NSaved=  10.
 NSaved=10 IEnMin=10 EnMin= -384.997972739250     IErMin=10 ErrMin= 6.96D-07
 ErrMax= 6.96D-07 EMaxC= 1.00D-01 BMatC= 3.56D-11 BMatP= 2.61D-10
 IDIUse=1 WtCom= 1.00D+00 WtEn= 0.00D+00
 Coeff-Com:  0.118D-04-0.299D-03-0.208D-03-0.319D-03 0.123D-02 0.101D-01
 Coeff-Com:  0.370D-01 0.857D-01 0.355D+00 0.511D+00
 Coeff:      0.118D-04-0.299D-03-0.208D-03-0.319D-03 0.123D-02 0.101D-01
 Coeff:      0.370D-01 0.857D-01 0.355D+00 0.511D+00
 Gap=     0.179 Goal=   None    Shift=    0.000
 RMSDP=1.44D-07 MaxDP=1.48D-05 DE=-2.08D-10 OVMax= 3.36D-06

 Cycle  11  Pass 1  IDiag  1:
 RMSU=  5.27D-08    CP:  7.42D-01  9.52D-01  6.53D-01  9.15D-01  7.99D-01
                    CP:  9.17D-01  7.52D-01  7.03D-01  9.59D-01  9.92D-01
 E= -384.997972739282     Delta-E=       -0.000000000032 Rises=F Damp=F
 DIIS: error= 3.13D-07 at cycle  11 NSaved=  11.
 NSaved=11 IEnMin=11 EnMin= -384.997972739282     IErMin=11 ErrMin= 3.13D-07
[...]
 GradGradGradGradGradGradGradGradGradGradGradGradGradGradGradGradGradGrad

 Largest change from initial coordinates is atom   12       5.068 Angstoms.
 Leave Link  103 at Tue Dec 14 10:33:51 2021, MaxMem=  498073600 cpu:       0.3
 (Enter /apps/software//g09/l202.exe)
                          Input orientation:                          
 ---------------------------------------------------------------------
 Center     Atomic      Atomic             Coordinates (Angstroms)
 Number     Number       Type             X           Y           Z
 ---------------------------------------------------------------------
      1          6           0       -1.944913    1.106828    0.000034
      2          6           0       -2.518174   -0.166443   -0.000008
      3          6           0       -1.702924   -1.296581    0.000020
      4          6           0       -0.316881   -1.155869    0.000080
      5          6           0        0.267483    0.117573    0.000124
      6          6           0       -0.562807    1.247347    0.000101
      7          6           0        1.754883    0.324361    0.000215
      8          8           0        2.224506    1.446837    0.000041
      9          6           0        2.664115   -0.890681   -0.000097
     10          1           0       -0.098892    2.226084    0.000140
     11          1           0       -2.578422    1.986655    0.000015
     12          1           0       -3.596942   -0.276371   -0.000058
     13          1           0       -2.145375   -2.286246   -0.000008
     14          1           0        0.303504   -2.043803    0.000103
     15          1           0        3.698939   -0.552677   -0.000236
     16          1           0        2.485698   -1.512554    0.882014
     17          1           0        2.485393   -1.512363   -0.882282
 ---------------------------------------------------------------------
                    Distance matrix (angstroms):
                    1          2          3          4          5
     1  C    0.000000
     2  C    1.396370   0.000000
     3  C    2.415561   1.393500   0.000000
     4  C    2.787523   2.413432   1.393167   0.000000
     5  C    2.423494   2.800098   2.425353   1.401119   0.000000
     6  C    1.389231   2.412937   2.787730   2.415767   1.402060
     7  C    3.781632   4.301152   3.818886   2.546231   1.501706
     8  O    4.183259   5.009560   4.790725   3.637682   2.365773
     9  C    5.023264   5.232652   4.385863   2.992769   2.600081
    10  H    2.158825   3.402515   3.870670   3.388971   2.140105
    11  H    1.084172   2.153941   3.397960   3.871695   3.404797
    12  H    2.154632   1.084354   2.151309   3.395926   3.884453
    13  H    3.398990   2.152334   1.084066   2.149684   3.405910
    14  H    3.870639   3.389151   2.141050   1.083191   2.161675
    15  H    5.882773   6.229099   5.452845   4.060869   3.496302
    16  H    5.222007   5.256302   4.285920   2.959642   2.890591
    17  H    5.221710   5.256006   4.285677   2.959458   2.890408
                    6          7          8          9         10
     6  C    0.000000
     7  C    2.494712   0.000000
     8  O    2.794442   1.216757   0.000000
     9  C    3.870943   1.517575   2.378497   0.000000
    10  H    1.083117   2.655754   2.450593   4.165146   0.000000
    11  H    2.146923   4.641202   4.833169   5.980240   2.491063
    12  H    3.395246   5.385435   6.071137   6.291122   4.301004
    13  H    3.871796   4.693323   5.747327   5.007874   4.954716
    14  H    3.403258   2.777535   3.984321   2.627199   4.288805
    15  H    4.626291   2.132733   2.484353   1.088626   4.705851
    16  H    4.205735   2.164698   3.099047   1.093927   4.629818
    17  H    4.205488   2.164718   3.098939   1.093929   4.629599
                   11         12         13         14         15
    11  H    0.000000
    12  H    2.481666   0.000000
    13  H    4.294788   2.479242   0.000000
    14  H    4.954804   4.282207   2.460851   0.000000
    15  H    6.771519   7.301111   6.096004   3.708427   0.000000
    16  H    6.218335   6.269346   4.777384   2.412874   1.780922
    17  H    6.218022   6.269035   4.777166   2.412814   1.780926
                   16         17
    16  H    0.000000
    17  H    1.764296   0.000000
 Stoichiometry    C8H8O
 Framework group  C1[X(C8H8O)]
 Deg. of freedom    45
 Full point group                 C1      NOp   1
 Largest Abelian subgroup         C1      NOp   1
 Largest concise Abelian subgroup C1      NOp   1
                         Standard orientation:                         
 ---------------------------------------------------------------------
 Center     Atomic      Atomic             Coordinates (Angstroms)
 Number     Number       Type             X           Y           Z
 ---------------------------------------------------------------------
      1          6           0       -1.966447   -1.134835    0.000011
      2          6           0       -2.590402    0.114375    0.000052
      3          6           0       -1.821217    1.276356    0.000024
      4          6           0       -0.430640    1.191445   -0.000036
      5          6           0        0.204417   -0.057490   -0.000079
      6          6           0       -0.579811   -1.219712   -0.000057
      7          6           0        1.698924   -0.204352   -0.000171
      8          8           0        2.213266   -1.307052    0.000003
      9          6           0        2.558605    1.046241    0.000141
     10          1           0       -0.076948   -2.179019   -0.000095
     11          1           0       -2.564095   -2.039405    0.000030
     12          1           0       -3.672716    0.180872    0.000102
     13          1           0       -2.303073    2.247444    0.000052
     14          1           0        0.153570    2.103587   -0.000059
     15          1           0        3.606173    0.750087    0.000280
     16          1           0        2.355346    1.660443   -0.881969
     17          1           0        2.355049    1.660240    0.882326
 ---------------------------------------------------------------------
 Rotational constants (GHZ):      3.6952517      1.2123344      0.9180502
 Leave Link  202 at Tue Dec 14 10:33:51 2021, MaxMem=  498073600 cpu:       0.0
 (Enter /apps/software//g09/l601.exe)
 Copying SCF densities to generalized density rwf, IOpCl= 0 IROHF=0.

 **********************************************************************

            Population analysis using the SCF density.

 **********************************************************************

 Orbital symmetries:
       Occupied  (A) (A) (A) (A) (A) (A) (A) (A) (A) (A) (A) (A)
                 (A) (A) (A) (A) (A) (A) (A) (A) (A) (A) (A) (A)
                 (A) (A) (A) (A) (A) (A) (A) (A)
       Virtual   (A) (A) (A) (A) (A) (A) (A) (A) (A) (A) (A) (A)
                 (A) (A) (A) (A) (A) (A) (A) (A) (A) (A) (A) (A)
                 (A) (A) (A) (A) (A) (A) (A) (A) (A) (A) (A) (A)
                 (A) (A) (A) (A) (A) (A) (A) (A) (A) (A) (A) (A)
                 (A) (A) (A) (A) (A) (A) (A) (A) (A) (A) (A) (A)
                 (A) (A) (A) (A) (A) (A) (A) (A) (A) (A) (A) (A)
                 (A) (A) (A) (A) (A) (A) (A) (A) (A) (A) (A) (A)
                 (A) (A) (A) (A) (A) (A) (A) (A) (A) (A) (A) (A)
                 (A) (A) (A) (A) (A) (A) (A) (A) (A) (A) (A) (A)
                 (A) (A) (A) (A) (A) (A) (A) (A) (A) (A) (A) (A)
                 (A) (A) (A) (A) (A) (A) (A) (A) (A) (A) (A) (A)
                 (A) (A) (A) (A) (A) (A) (A) (A) (A) (A) (A) (A)
                 (A) (A) (A) (A) (A) (A) (A) (A) (A) (A) (A) (A)
                 (A) (A) (A) (A) (A) (A) (A) (A) (A) (A) (A) (A)
                 (A) (A) (A) (A) (A) (A) (A) (A) (A) (A) (A) (A)
                 (A) (A) (A) (A) (A) (A) (A) (A) (A) (A) (A) (A)
                 (A) (A) (A) (A) (A) (A) (A) (A) (A) (A) (A) (A)
                 (A) (A) (A) (A) (A) (A) (A) (A) (A) (A) (A) (A)
                 (A) (A) (A) (A) (A)
 The electronic state is 1-A.
 Alpha  occ. eigenvalues --  -19.11547 -10.26876 -10.19641 -10.19561 -10.19462
 Alpha  occ. eigenvalues --  -10.19187 -10.18992 -10.18880 -10.17913  -1.05013
 Alpha  occ. eigenvalues --   -0.87576  -0.78483  -0.76549  -0.74085  -0.64143
 Alpha  occ. eigenvalues --   -0.62148  -0.56494  -0.52324  -0.47976  -0.47102
 Alpha  occ. eigenvalues --   -0.45970  -0.45333  -0.44001  -0.42710  -0.40191
 Alpha  occ. eigenvalues --   -0.39133  -0.37255  -0.36487  -0.35975  -0.27457
 Alpha  occ. eigenvalues --   -0.27105  -0.26180
 Alpha virt. eigenvalues --   -0.07083  -0.02862  -0.01389  -0.00012   0.01041
 Alpha virt. eigenvalues --    0.01929   0.02486   0.03017   0.03399   0.04031
 Alpha virt. eigenvalues --    0.05710   0.06344   0.06362   0.07412   0.08152
 Alpha virt. eigenvalues --    0.09519   0.09951   0.10398   0.10706   0.10807
 Alpha virt. eigenvalues --    0.11496   0.12030   0.12369   0.12923   0.13247
 Alpha virt. eigenvalues --    0.13818   0.14247   0.14690   0.15405   0.15596
 Alpha virt. eigenvalues --    0.15643   0.16450   0.16968   0.17694   0.17741
 Alpha virt. eigenvalues --    0.18227   0.19845   0.21175   0.21360   0.21599
 Alpha virt. eigenvalues --    0.21937   0.22851   0.23679   0.24840   0.26398
 Alpha virt. eigenvalues --    0.26824   0.27493   0.28775   0.28993   0.29744
 Alpha virt. eigenvalues --    0.30217   0.30654   0.31677   0.32803   0.33589
 Alpha virt. eigenvalues --    0.34754   0.35289   0.35916   0.38409   0.39558
 Alpha virt. eigenvalues --    0.42614   0.44886   0.47073   0.48394   0.50550
 Alpha virt. eigenvalues --    0.52359   0.53430   0.53473   0.55240   0.55420
 Alpha virt. eigenvalues --    0.55781   0.56979   0.57501   0.58120   0.60317
 Alpha virt. eigenvalues --    0.61458   0.63257   0.63889   0.64848   0.65255
 Alpha virt. eigenvalues --    0.66539   0.68613   0.69508   0.69666   0.71637
 Alpha virt. eigenvalues --    0.73106   0.74777   0.75883   0.79791   0.81501
 Alpha virt. eigenvalues --    0.82449   0.84139   0.86023   0.87347   0.88850
 Alpha virt. eigenvalues --    0.89044   0.90826   0.93116   0.93705   0.96047
 Alpha virt. eigenvalues --    0.98886   0.99362   1.01926   1.03242   1.06545
 Alpha virt. eigenvalues --    1.07297   1.07607   1.07955   1.12313   1.13251
 Alpha virt. eigenvalues --    1.19581   1.21240   1.26619   1.30028   1.31826
 Alpha virt. eigenvalues --    1.42168   1.42373   1.43758   1.47746   1.49737
 Alpha virt. eigenvalues --    1.50306   1.51122   1.51632   1.55423   1.55585
 Alpha virt. eigenvalues --    1.55721   1.57329   1.60968   1.63011   1.65327
 Alpha virt. eigenvalues --    1.66850   1.68900   1.69939   1.73326   1.74089
 Alpha virt. eigenvalues --    1.76367   1.77686   1.81273   1.83040   1.85192
 Alpha virt. eigenvalues --    1.90281   1.91100   1.91460   1.92853   1.94286
 Alpha virt. eigenvalues --    1.96538   1.97443   2.01209   2.03562   2.04813
 Alpha virt. eigenvalues --    2.07034   2.10812   2.14016   2.17688   2.21301
 Alpha virt. eigenvalues --    2.29123   2.33838   2.34167   2.42369   2.43617
 Alpha virt. eigenvalues --    2.44614   2.46001   2.46912   2.51033   2.54028
 Alpha virt. eigenvalues --    2.55237   2.60904   2.64619   2.65385   2.66960
 Alpha virt. eigenvalues --    2.69829   2.71378   2.71902   2.72186   2.73396
 Alpha virt. eigenvalues --    2.74838   2.78534   2.78878   2.82514   2.83997
 Alpha virt. eigenvalues --    2.87226   2.88089   2.89123   2.93483   2.94697
 Alpha virt. eigenvalues --    2.95067   3.04077   3.07048   3.11562   3.19245
 Alpha virt. eigenvalues --    3.24622   3.33771   3.34992   3.35858   3.47114
 Alpha virt. eigenvalues --    3.51053   3.51727   3.60688   3.63888   3.75716
 Alpha virt. eigenvalues --    3.77295   3.87418   3.99049   4.02619   4.12987
 Alpha virt. eigenvalues --    4.14820   4.18491   4.37041   4.83182   5.05216
 Alpha virt. eigenvalues --    5.22594   5.73938  23.59372  23.84259  23.94503
 Alpha virt. eigenvalues --   23.95207  23.96607  24.05666  24.09068  24.17839
 Alpha virt. eigenvalues --   50.00330
          Condensed to atoms (all electrons):
              1          2          3          4          5          6
     1  C    6.300061   0.166643  -0.270087   0.846242  -0.860959  -0.382919
     2  C    0.166643   5.624921   0.570893  -0.546899  -0.034374  -0.184094
     3  C   -0.270087   0.570893   6.041906   0.217781  -0.540843   0.494186
     4  C    0.846242  -0.546899   0.217781   9.377613  -0.212001  -2.796411
     5  C   -0.860959  -0.034374  -0.540843  -0.212001  10.613818   0.146063
     6  C   -0.382919  -0.184094   0.494186  -2.796411   0.146063   8.629139
     7  C    0.111901   0.333312  -0.006758   0.040071  -3.910075  -0.674546
     8  O    0.052000  -0.006955  -0.025906  -0.167185  -0.176046   0.166219
     9  C    0.145441  -0.116818  -0.275671  -0.117132  -0.212836  -0.150095
    10  H   -0.112743  -0.007826   0.012176   0.013483   0.063239   0.399118
    11  H    0.461595  -0.064156   0.001760   0.029259  -0.004978  -0.110473
    12  H   -0.089964   0.480543  -0.060919  -0.041586   0.035056   0.006176
    13  H    0.002700  -0.056696   0.408708  -0.074334   0.028385   0.020239
    14  H    0.040877  -0.009912  -0.088500   0.476412  -0.105962  -0.029039
    15  H    0.006835  -0.000288  -0.009256   0.004962  -0.087752  -0.000782
    16  H   -0.005425   0.002941   0.005212  -0.016678   0.016004   0.011378
    17  H   -0.005403   0.002939   0.005177  -0.016368   0.015682   0.011205
              7          8          9         10         11         12
     1  C    0.111901   0.052000   0.145441  -0.112743   0.461595  -0.089964
     2  C    0.333312  -0.006955  -0.116818  -0.007826  -0.064156   0.480543
     3  C   -0.006758  -0.025906  -0.275671   0.012176   0.001760  -0.060919
     4  C    0.040071  -0.167185  -0.117132   0.013483   0.029259  -0.041586
     5  C   -3.910075  -0.176046  -0.212836   0.063239  -0.004978   0.035056
     6  C   -0.674546   0.166219  -0.150095   0.399118  -0.110473   0.006176
     7  C   11.059396   0.358575  -1.106561  -0.040599  -0.003007   0.001975
     8  O    0.358575   8.074714  -0.028311   0.000144   0.002299  -0.000053
     9  C   -1.106561  -0.028311   7.231875   0.010768   0.006218  -0.002687
    10  H   -0.040599   0.000144   0.010768   0.476673  -0.011359   0.000023
    11  H   -0.003007   0.002299   0.006218  -0.011359   0.535345  -0.016516
    12  H    0.001975  -0.000053  -0.002687   0.000023  -0.016516   0.545722
    13  H   -0.016811   0.000164   0.004579   0.001052  -0.000102  -0.015632
    14  H    0.018714  -0.001786   0.034851  -0.002529   0.001547  -0.000755
    15  H    0.057863  -0.007369   0.380842  -0.001202   0.000093  -0.000058
    16  H    0.021475   0.004183   0.326036   0.000346  -0.000235   0.000029
    17  H    0.021569   0.004142   0.326198   0.000342  -0.000235   0.000029
             13         14         15         16         17
     1  C    0.002700   0.040877   0.006835  -0.005425  -0.005403
     2  C   -0.056696  -0.009912  -0.000288   0.002941   0.002939
     3  C    0.408708  -0.088500  -0.009256   0.005212   0.005177
     4  C   -0.074334   0.476412   0.004962  -0.016678  -0.016368
     5  C    0.028385  -0.105962  -0.087752   0.016004   0.015682
     6  C    0.020239  -0.029039  -0.000782   0.011378   0.011205
     7  C   -0.016811   0.018714   0.057863   0.021475   0.021569
     8  O    0.000164  -0.001786  -0.007369   0.004183   0.004142
     9  C    0.004579   0.034851   0.380842   0.326036   0.326198
    10  H    0.001052  -0.002529  -0.001202   0.000346   0.000342
    11  H   -0.000102   0.001547   0.000093  -0.000235  -0.000235
    12  H   -0.015632  -0.000755  -0.000058   0.000029   0.000029
    13  H    0.536748  -0.014829  -0.000247   0.000217   0.000215
    14  H   -0.014829   0.545470   0.004275  -0.006410  -0.006396
    15  H   -0.000247   0.004275   0.480169  -0.014674  -0.014676
    16  H    0.000217  -0.006410  -0.014674   0.559581  -0.057235
    17  H    0.000215  -0.006396  -0.014676  -0.057235   0.559554
 Mulliken atomic charges:
              1
     1  C   -0.406795
     2  C   -0.154172
     3  C   -0.479860
     4  C   -1.017227
     5  C    1.227580
     6  C    0.444639
     7  C   -0.266493
     8  O   -0.248829
     9  C   -0.456697
    10  H    0.198894
    11  H    0.172945
    12  H    0.158617
    13  H    0.175645
    14  H    0.143971
    15  H    0.201265
    16  H    0.153255
    17  H    0.153262
 Sum of Mulliken atomic charges =   0.00000
 Mulliken charges with hydrogens summed into heavy atoms:
              1
     1  C   -0.233850
     2  C    0.004445
     3  C   -0.304215
     4  C   -0.873256
     5  C    1.227580
     6  C    0.643533
     7  C   -0.266493
     8  O   -0.248829
     9  C    0.051085
 Sum of Mulliken charges with hydrogens summed into heavy atoms =   0.00000
 Electronic spatial extent (au):  <R**2>=           1238.3387
 Charge=              0.0000 electrons
 Dipole moment (field-independent basis, Debye):
    X=             -1.9947    Y=              2.5579    Z=              0.0000  Tot=              3.2437
 Quadrupole moment (field-independent basis, Debye-Ang):
   XX=            -51.8529   YY=            -51.4643   ZZ=            -55.9961
   XY=              6.9001   XZ=             -0.0003   YZ=              0.0003
 Traceless Quadrupole moment (field-independent basis, Debye-Ang):
   XX=              1.2515   YY=              1.6401   ZZ=             -2.8916
   XY=              6.9001   XZ=             -0.0003   YZ=              0.0003
 Octapole moment (field-independent basis, Debye-Ang**2):
  XXX=            -16.3189  YYY=              1.3410  ZZZ=              0.0005  XYY=            -10.1050
  XXY=             14.6055  XXZ=              0.0015  XZZ=              9.6453  YZZ=             -0.9279
  YYZ=              0.0002  XYZ=              0.0002
 Hexadecapole moment (field-independent basis, Debye-Ang**3):
 XXXX=          -1125.2578 YYYY=           -417.0947 ZZZZ=            -70.6263 XXXY=             30.0687
 XXXZ=             -0.0017 YYYX=              4.5771 YYYZ=             -0.0055 ZZZX=             -0.0005
 ZZZY=             -0.0050 XXYY=           -275.4191 XXZZ=           -219.8415 YYZZ=            -89.1360
 XXYZ=             -0.0013 YYXZ=             -0.0008 ZZXY=             -0.7372
 N-N= 4.010439813550D+02 E-N=-1.697970010646D+03  KE= 3.833309759106D+02
 No NMR shielding tensors so no spin-rotation constants.
 Leave Link  601 at Tue Dec 14 10:33:52 2021, MaxMem=  498073600 cpu:       2.1
 (Enter /apps/software//g09/l9999.exe)
 1\1\GINC-DLT01\FOpt\RB3LYP\6-311++G(d,p)\C8H8O1\ITAMAR\14-Dec-2021\0\\
 #P B3LYP/6-311++G** OPT\\X=COCH3 - Original geometry missing oxygen\\0
 ,1\C,-1.9449128897,1.1068277693,0.0000336987\C,-2.518174181,-0.1664434
 95,-0.0000075289\C,-1.7029243525,-1.2965812088,0.0000201248\C,-0.31688
 1243,-1.1558692572,0.0000802903\C,0.2674830504,0.1175726161,0.00012361
 1\C,-0.5628070303,1.2473474146,0.0001012816\C,1.7548830084,0.324361481
 9,0.0002149813\O,2.2245057283,1.4468369843,0.0000409441\C,2.6641154719
 ,-0.8906814046,-0.0000971214\H,-0.0988924663,2.226083794,0.0001395161\
 H,-2.5784223261,1.9866545823,0.0000146381\H,-3.5969420776,-0.276371139
 9,-0.0000578416\H,-2.1453749882,-2.2862455695,-0.000007809\H,0.3035040
 557,-2.0438025198,0.0001028083\H,3.6989391446,-0.5526772598,-0.0002359
 337\H,2.4856977404,-1.5125537201,0.8820135528\H,2.485393355,-1.5123630
 677,-0.8822822123\\Version=EM64L-G09RevA.02\State=1-A\HF=-385.0017886\
 RMSD=6.636e-09\RMSF=2.187e-05\Dipole=-0.7437065,-1.037079,0.0000011\Qu
 adrupole=1.3428253,0.8070384,-2.1498638,-5.1251153,0.0002281,0.000201\
 PG=C01 [X(C8H8O1)]\\@


 MUD THROWN IS GROUND LOST -- FROM A TEA BAG
 Job cpu time:  0 days  1 hours 36 minutes 32.6 seconds.
 File lengths (MBytes):  RWF=     45 Int=      0 D2E=      0 Chk=      6 Scr=      1
 Normal termination of Gaussian 09 at Tue Dec 14 10:33:52 2021.
