14-H                                                                    
Freq      RMP2-FC                                                     6-311++G(d,p)       
Number of atoms                            I               12
Info1-9                                    I   N=           9
          21          20        1002           0           0         100
           6           2           1
Charge                                     I                0
Multiplicity                               I                1
Number of electrons                        I               42
Number of alpha electrons                  I               21
Number of beta electrons                   I               21
Number of basis functions                  I              174
Number of independent functions            I              174
Number of point charges in /Mol/           I                0
Number of translation vectors              I                0
Atomic numbers                             I   N=          12
           6           6           6           6           6           6
           1           1           1           1           1           1
Nuclear charges                            R   N=          12
  6.00000000E+00  6.00000000E+00  6.00000000E+00  6.00000000E+00  6.00000000E+00
  6.00000000E+00  1.00000000E+00  1.00000000E+00  1.00000000E+00  1.00000000E+00
  1.00000000E+00  1.00000000E+00
Current cartesian coordinates              R   N=          36
 -2.29153041E+00  1.32301540E+00  0.00000000E+00  1.91646838E-07  2.64602280E+00
  0.00000000E+00  2.29153041E+00  1.32301301E+00  0.00000000E+00  2.29153041E+00
 -1.32301540E+00  0.00000000E+00 -1.91646838E-07 -2.64602280E+00  0.00000000E+00
 -2.29153041E+00 -1.32301301E+00  0.00000000E+00 -4.07005140E+00  2.34984706E+00
  0.00000000E+00  3.04430769E-07  4.69968340E+00  0.00000000E+00  4.07004950E+00
  2.34984829E+00  0.00000000E+00  4.07005140E+00 -2.34984706E+00  0.00000000E+00
 -3.04430767E-07 -4.69968340E+00  0.00000000E+00 -4.07004950E+00 -2.34984829E+00
  0.00000000E+00
Force Field                                I                0
Int Atom Types                             I   N=          12
           0           0           0           0           0           0
           0           0           0           0           0           0
MM charges                                 R   N=          12
  0.00000000E+00  0.00000000E+00  0.00000000E+00  0.00000000E+00  0.00000000E+00
  0.00000000E+00  0.00000000E+00  0.00000000E+00  0.00000000E+00  0.00000000E+00
  0.00000000E+00  0.00000000E+00
Integer atomic weights                     I   N=          12
          12          12          12          12          12          12
           1           1           1           1           1           1
Real atomic weights                        R   N=          12
  1.20000000E+01  1.20000000E+01  1.20000000E+01  1.20000000E+01  1.20000000E+01
  1.20000000E+01  1.00782504E+00  1.00782504E+00  1.00782504E+00  1.00782504E+00
  1.00782504E+00  1.00782504E+00
Atom fragment info                         I   N=          12
           0           0           0           0           0           0
           0           0           0           0           0           0
Atom residue num                           I   N=          12
           0           0           0           0           0           0
           0           0           0           0           0           0
Nuclear spins                              I   N=          12
           0           0           0           0           0           0
           1           1           1           1           1           1
Nuclear ZEff                               R   N=          12
 -3.60000000E+00 -3.60000000E+00 -3.60000000E+00 -3.60000000E+00 -3.60000000E+00
 -3.60000000E+00 -1.00000000E+00 -1.00000000E+00 -1.00000000E+00 -1.00000000E+00
 -1.00000000E+00 -1.00000000E+00
Nuclear ZNuc                               R   N=          12
  6.00000000E+00  6.00000000E+00  6.00000000E+00  6.00000000E+00  6.00000000E+00
  6.00000000E+00  1.00000000E+00  1.00000000E+00  1.00000000E+00  1.00000000E+00
  1.00000000E+00  1.00000000E+00
Nuclear QMom                               R   N=          12
  0.00000000E+00  0.00000000E+00  0.00000000E+00  0.00000000E+00  0.00000000E+00
  0.00000000E+00  0.00000000E+00  0.00000000E+00  0.00000000E+00  0.00000000E+00
  0.00000000E+00  0.00000000E+00
Nuclear GFac                               R   N=          12
  0.00000000E+00  0.00000000E+00  0.00000000E+00  0.00000000E+00  0.00000000E+00
  0.00000000E+00  2.79284600E+00  2.79284600E+00  2.79284600E+00  2.79284600E+00
  2.79284600E+00  2.79284600E+00
MicOpt                                     I   N=          12
          -1          -1          -1          -1          -1          -1
          -1          -1          -1          -1          -1          -1
Number of contracted shells                I               66
Number of primitive shells                 I              120
Pure/Cartesian d shells                    I                0
Pure/Cartesian f shells                    I                0
Highest angular momentum                   I                2
Largest degree of contraction              I                6
Shell types                                I   N=          66
           0          -1          -1          -1          -1          -2
           0          -1          -1          -1          -1          -2
           0          -1          -1          -1          -1          -2
           0          -1          -1          -1          -1          -2
           0          -1          -1          -1          -1          -2
           0          -1          -1          -1          -1          -2
           0           0           0           0           1           0
           0           0           0           1           0           0
           0           0           1           0           0           0
           0           1           0           0           0           0
           1           0           0           0           0           1
Number of primitives per shell             I   N=          66
           6           3           1           1           1           1
           6           3           1           1           1           1
           6           3           1           1           1           1
           6           3           1           1           1           1
           6           3           1           1           1           1
           6           3           1           1           1           1
           3           1           1           1           1           3
           1           1           1           1           3           1
           1           1           1           3           1           1
           1           1           3           1           1           1
           1           3           1           1           1           1
Shell to atom map                          I   N=          66
           1           1           1           1           1           1
           2           2           2           2           2           2
           3           3           3           3           3           3
           4           4           4           4           4           4
           5           5           5           5           5           5
           6           6           6           6           6           6
           7           7           7           7           7           8
           8           8           8           8           9           9
           9           9           9          10          10          10
          10          10          11          11          11          11
          11          12          12          12          12          12
Primitive exponents                        R   N=         120
  4.56324000E+03  6.82024000E+02  1.54973000E+02  4.44553000E+01  1.30290000E+01
  1.82773000E+00  2.09642000E+01  4.80331000E+00  1.45933000E+00  4.83456000E-01
  1.45585000E-01  4.38000000E-02  6.26000000E-01  4.56324000E+03  6.82024000E+02
  1.54973000E+02  4.44553000E+01  1.30290000E+01  1.82773000E+00  2.09642000E+01
  4.80331000E+00  1.45933000E+00  4.83456000E-01  1.45585000E-01  4.38000000E-02
  6.26000000E-01  4.56324000E+03  6.82024000E+02  1.54973000E+02  4.44553000E+01
  1.30290000E+01  1.82773000E+00  2.09642000E+01  4.80331000E+00  1.45933000E+00
  4.83456000E-01  1.45585000E-01  4.38000000E-02  6.26000000E-01  4.56324000E+03
  6.82024000E+02  1.54973000E+02  4.44553000E+01  1.30290000E+01  1.82773000E+00
  2.09642000E+01  4.80331000E+00  1.45933000E+00  4.83456000E-01  1.45585000E-01
  4.38000000E-02  6.26000000E-01  4.56324000E+03  6.82024000E+02  1.54973000E+02
  4.44553000E+01  1.30290000E+01  1.82773000E+00  2.09642000E+01  4.80331000E+00
  1.45933000E+00  4.83456000E-01  1.45585000E-01  4.38000000E-02  6.26000000E-01
  4.56324000E+03  6.82024000E+02  1.54973000E+02  4.44553000E+01  1.30290000E+01
  1.82773000E+00  2.09642000E+01  4.80331000E+00  1.45933000E+00  4.83456000E-01
  1.45585000E-01  4.38000000E-02  6.26000000E-01  3.38650000E+01  5.09479000E+00
  1.15879000E+00  3.25840000E-01  1.02741000E-01  3.60000000E-02  7.50000000E-01
  3.38650000E+01  5.09479000E+00  1.15879000E+00  3.25840000E-01  1.02741000E-01
  3.60000000E-02  7.50000000E-01  3.38650000E+01  5.09479000E+00  1.15879000E+00
  3.25840000E-01  1.02741000E-01  3.60000000E-02  7.50000000E-01  3.38650000E+01
  5.09479000E+00  1.15879000E+00  3.25840000E-01  1.02741000E-01  3.60000000E-02
  7.50000000E-01  3.38650000E+01  5.09479000E+00  1.15879000E+00  3.25840000E-01
  1.02741000E-01  3.60000000E-02  7.50000000E-01  3.38650000E+01  5.09479000E+00
  1.15879000E+00  3.25840000E-01  1.02741000E-01  3.60000000E-02  7.50000000E-01
Contraction coefficients                   R   N=         120
  1.96665025E-03  1.52306019E-02  7.61269097E-02  2.60801033E-01  6.16462078E-01
  2.21006028E-01  1.14660081E-01  9.19999648E-01 -3.03068213E-03  1.00000000E+00
  1.00000000E+00  1.00000000E+00  1.00000000E+00  1.96665025E-03  1.52306019E-02
  7.61269097E-02  2.60801033E-01  6.16462078E-01  2.21006028E-01  1.14660081E-01
  9.19999648E-01 -3.03068213E-03  1.00000000E+00  1.00000000E+00  1.00000000E+00
  1.00000000E+00  1.96665025E-03  1.52306019E-02  7.61269097E-02  2.60801033E-01
  6.16462078E-01  2.21006028E-01  1.14660081E-01  9.19999648E-01 -3.03068213E-03
  1.00000000E+00  1.00000000E+00  1.00000000E+00  1.00000000E+00  1.96665025E-03
  1.52306019E-02  7.61269097E-02  2.60801033E-01  6.16462078E-01  2.21006028E-01
  1.14660081E-01  9.19999648E-01 -3.03068213E-03  1.00000000E+00  1.00000000E+00
  1.00000000E+00  1.00000000E+00  1.96665025E-03  1.52306019E-02  7.61269097E-02
  2.60801033E-01  6.16462078E-01  2.21006028E-01  1.14660081E-01  9.19999648E-01
 -3.03068213E-03  1.00000000E+00  1.00000000E+00  1.00000000E+00  1.00000000E+00
  1.96665025E-03  1.52306019E-02  7.61269097E-02  2.60801033E-01  6.16462078E-01
  2.21006028E-01  1.14660081E-01  9.19999648E-01 -3.03068213E-03  1.00000000E+00
  1.00000000E+00  1.00000000E+00  1.00000000E+00  2.54938145E-02  1.90373109E-01
  8.52161486E-01  1.00000000E+00  1.00000000E+00  1.00000000E+00  1.00000000E+00
  2.54938145E-02  1.90373109E-01  8.52161486E-01  1.00000000E+00  1.00000000E+00
  1.00000000E+00  1.00000000E+00  2.54938145E-02  1.90373109E-01  8.52161486E-01
  1.00000000E+00  1.00000000E+00  1.00000000E+00  1.00000000E+00  2.54938145E-02
  1.90373109E-01  8.52161486E-01  1.00000000E+00  1.00000000E+00  1.00000000E+00
  1.00000000E+00  2.54938145E-02  1.90373109E-01  8.52161486E-01  1.00000000E+00
  1.00000000E+00  1.00000000E+00  1.00000000E+00  2.54938145E-02  1.90373109E-01
  8.52161486E-01  1.00000000E+00  1.00000000E+00  1.00000000E+00  1.00000000E+00
P(S=P) Contraction coefficients            R   N=         120
  0.00000000E+00  0.00000000E+00  0.00000000E+00  0.00000000E+00  0.00000000E+00
  0.00000000E+00  4.02486927E-02  2.37593957E-01  8.15853851E-01  1.00000000E+00
  1.00000000E+00  1.00000000E+00  0.00000000E+00  0.00000000E+00  0.00000000E+00
  0.00000000E+00  0.00000000E+00  0.00000000E+00  0.00000000E+00  4.02486927E-02
  2.37593957E-01  8.15853851E-01  1.00000000E+00  1.00000000E+00  1.00000000E+00
  0.00000000E+00  0.00000000E+00  0.00000000E+00  0.00000000E+00  0.00000000E+00
  0.00000000E+00  0.00000000E+00  4.02486927E-02  2.37593957E-01  8.15853851E-01
  1.00000000E+00  1.00000000E+00  1.00000000E+00  0.00000000E+00  0.00000000E+00
  0.00000000E+00  0.00000000E+00  0.00000000E+00  0.00000000E+00  0.00000000E+00
  4.02486927E-02  2.37593957E-01  8.15853851E-01  1.00000000E+00  1.00000000E+00
  1.00000000E+00  0.00000000E+00  0.00000000E+00  0.00000000E+00  0.00000000E+00
  0.00000000E+00  0.00000000E+00  0.00000000E+00  4.02486927E-02  2.37593957E-01
  8.15853851E-01  1.00000000E+00  1.00000000E+00  1.00000000E+00  0.00000000E+00
  0.00000000E+00  0.00000000E+00  0.00000000E+00  0.00000000E+00  0.00000000E+00
  0.00000000E+00  4.02486927E-02  2.37593957E-01  8.15853851E-01  1.00000000E+00
  1.00000000E+00  1.00000000E+00  0.00000000E+00  0.00000000E+00  0.00000000E+00
  0.00000000E+00  0.00000000E+00  0.00000000E+00  0.00000000E+00  0.00000000E+00
  0.00000000E+00  0.00000000E+00  0.00000000E+00  0.00000000E+00  0.00000000E+00
  0.00000000E+00  0.00000000E+00  0.00000000E+00  0.00000000E+00  0.00000000E+00
  0.00000000E+00  0.00000000E+00  0.00000000E+00  0.00000000E+00  0.00000000E+00
  0.00000000E+00  0.00000000E+00  0.00000000E+00  0.00000000E+00  0.00000000E+00
  0.00000000E+00  0.00000000E+00  0.00000000E+00  0.00000000E+00  0.00000000E+00
  0.00000000E+00  0.00000000E+00  0.00000000E+00  0.00000000E+00  0.00000000E+00
  0.00000000E+00  0.00000000E+00  0.00000000E+00  0.00000000E+00  0.00000000E+00
Coordinates of each shell                  R   N=         198
 -2.29153041E+00  1.32301540E+00  0.00000000E+00 -2.29153041E+00  1.32301540E+00
  0.00000000E+00 -2.29153041E+00  1.32301540E+00  0.00000000E+00 -2.29153041E+00
  1.32301540E+00  0.00000000E+00 -2.29153041E+00  1.32301540E+00  0.00000000E+00
 -2.29153041E+00  1.32301540E+00  0.00000000E+00  1.91646838E-07  2.64602280E+00
  0.00000000E+00  1.91646838E-07  2.64602280E+00  0.00000000E+00  1.91646838E-07
  2.64602280E+00  0.00000000E+00  1.91646838E-07  2.64602280E+00  0.00000000E+00
  1.91646838E-07  2.64602280E+00  0.00000000E+00  1.91646838E-07  2.64602280E+00
  0.00000000E+00  2.29153041E+00  1.32301301E+00  0.00000000E+00  2.29153041E+00
  1.32301301E+00  0.00000000E+00  2.29153041E+00  1.32301301E+00  0.00000000E+00
  2.29153041E+00  1.32301301E+00  0.00000000E+00  2.29153041E+00  1.32301301E+00
  0.00000000E+00  2.29153041E+00  1.32301301E+00  0.00000000E+00  2.29153041E+00
 -1.32301540E+00  0.00000000E+00  2.29153041E+00 -1.32301540E+00  0.00000000E+00
  2.29153041E+00 -1.32301540E+00  0.00000000E+00  2.29153041E+00 -1.32301540E+00
  0.00000000E+00  2.29153041E+00 -1.32301540E+00  0.00000000E+00  2.29153041E+00
 -1.32301540E+00  0.00000000E+00 -1.91646838E-07 -2.64602280E+00  0.00000000E+00
 -1.91646838E-07 -2.64602280E+00  0.00000000E+00 -1.91646838E-07 -2.64602280E+00
  0.00000000E+00 -1.91646838E-07 -2.64602280E+00  0.00000000E+00 -1.91646838E-07
 -2.64602280E+00  0.00000000E+00 -1.91646838E-07 -2.64602280E+00  0.00000000E+00
 -2.29153041E+00 -1.32301301E+00  0.00000000E+00 -2.29153041E+00 -1.32301301E+00
  0.00000000E+00 -2.29153041E+00 -1.32301301E+00  0.00000000E+00 -2.29153041E+00
 -1.32301301E+00  0.00000000E+00 -2.29153041E+00 -1.32301301E+00  0.00000000E+00
 -2.29153041E+00 -1.32301301E+00  0.00000000E+00 -4.07005140E+00  2.34984706E+00
  0.00000000E+00 -4.07005140E+00  2.34984706E+00  0.00000000E+00 -4.07005140E+00
  2.34984706E+00  0.00000000E+00 -4.07005140E+00  2.34984706E+00  0.00000000E+00
 -4.07005140E+00  2.34984706E+00  0.00000000E+00  3.04430769E-07  4.69968340E+00
  0.00000000E+00  3.04430769E-07  4.69968340E+00  0.00000000E+00  3.04430769E-07
  4.69968340E+00  0.00000000E+00  3.04430769E-07  4.69968340E+00  0.00000000E+00
  3.04430769E-07  4.69968340E+00  0.00000000E+00  4.07004950E+00  2.34984829E+00
  0.00000000E+00  4.07004950E+00  2.34984829E+00  0.00000000E+00  4.07004950E+00
  2.34984829E+00  0.00000000E+00  4.07004950E+00  2.34984829E+00  0.00000000E+00
  4.07004950E+00  2.34984829E+00  0.00000000E+00  4.07005140E+00 -2.34984706E+00
  0.00000000E+00  4.07005140E+00 -2.34984706E+00  0.00000000E+00  4.07005140E+00
 -2.34984706E+00  0.00000000E+00  4.07005140E+00 -2.34984706E+00  0.00000000E+00
  4.07005140E+00 -2.34984706E+00  0.00000000E+00 -3.04430768E-07 -4.69968340E+00
  0.00000000E+00 -3.04430768E-07 -4.69968340E+00  0.00000000E+00 -3.04430768E-07
 -4.69968340E+00  0.00000000E+00 -3.04430768E-07 -4.69968340E+00  0.00000000E+00
 -3.04430768E-07 -4.69968340E+00  0.00000000E+00 -4.07004950E+00 -2.34984829E+00
  0.00000000E+00 -4.07004950E+00 -2.34984829E+00  0.00000000E+00 -4.07004950E+00
 -2.34984829E+00  0.00000000E+00 -4.07004950E+00 -2.34984829E+00  0.00000000E+00
 -4.07004950E+00 -2.34984829E+00  0.00000000E+00
Constraint Structure                       R   N=          36
 -2.29153041E+00  1.32301540E+00  0.00000000E+00  1.91646838E-07  2.64602280E+00
  0.00000000E+00  2.29153041E+00  1.32301301E+00  0.00000000E+00  2.29153041E+00
 -1.32301540E+00  0.00000000E+00 -1.91646838E-07 -2.64602280E+00  0.00000000E+00
 -2.29153041E+00 -1.32301301E+00  0.00000000E+00 -4.07005140E+00  2.34984706E+00
  0.00000000E+00  3.04430769E-07  4.69968340E+00  0.00000000E+00  4.07004950E+00
  2.34984829E+00  0.00000000E+00  4.07005140E+00 -2.34984706E+00  0.00000000E+00
 -3.04430768E-07 -4.69968340E+00  0.00000000E+00 -4.07004950E+00 -2.34984829E+00
  0.00000000E+00
Num ILSW                                   I              100
ILSW                                       I   N=         100
           0           0           0           1           2           0
           0           0           0           0           0          -1
           0           0           0           0           2           0
           0           0           1           0           1           0
           1           0           0           0           0           0
           0           0      100000           0          -1           0
           0           0           0           0           0           0
           0           0           0           1           1           0
           0           0           1           0           0           0
           0           0           4          41           0           0
           0           0           0           0           0           0
           0           0           0           0           0           0
           0           0           0           0           0           0
           0           0           0           0           0           0
           0           0           0           0           0           0
           0           0           0           0           0           0
           0           0           0           0
Num RLSW                                   I               41
RLSW                                       R   N=          41
  1.00000000E+00  1.00000000E+00  1.00000000E+00  1.00000000E+00  1.00000000E+00
  0.00000000E+00  0.00000000E+00  1.00000000E+00  0.00000000E+00  0.00000000E+00
  0.00000000E+00  0.00000000E+00  1.00000000E+00  0.00000000E+00  0.00000000E+00
  0.00000000E+00  0.00000000E+00  1.00000000E+00  0.00000000E+00  0.00000000E+00
  0.00000000E+00  0.00000000E+00  1.00000000E+00  0.00000000E+00  0.00000000E+00
  0.00000000E+00  0.00000000E+00  1.00000000E+00  0.00000000E+00  0.00000000E+00
  0.00000000E+00  0.00000000E+00  1.00000000E+00  0.00000000E+00  0.00000000E+00
  0.00000000E+00  0.00000000E+00  0.00000000E+00  1.00000000E+00  1.00000000E+00
  0.00000000E+00
MxBond                                     I                3
NBond                                      I   N=          12
           3           3           3           3           3           3
           1           1           1           1           1           1
IBond                                      I   N=          36
           2           6           7           1           3           8
           2           4           9           3           5          10
           4           6          11           1           5          12
           1           0           0           2           0           0
           3           0           0           4           0           0
           5           0           0           6           0           0
RBond                                      R   N=          36
  1.50000000E+00  1.50000000E+00  1.00000000E+00  1.50000000E+00  1.50000000E+00
  1.00000000E+00  1.50000000E+00  1.50000000E+00  1.00000000E+00  1.50000000E+00
  1.50000000E+00  1.00000000E+00  1.50000000E+00  1.50000000E+00  1.00000000E+00
  1.50000000E+00  1.50000000E+00  1.00000000E+00  1.00000000E+00  0.00000000E+00
  0.00000000E+00  1.00000000E+00  0.00000000E+00  0.00000000E+00  1.00000000E+00
  0.00000000E+00  0.00000000E+00  1.00000000E+00  0.00000000E+00  0.00000000E+00
  1.00000000E+00  0.00000000E+00  0.00000000E+00  1.00000000E+00  0.00000000E+00
  0.00000000E+00
Virial Ratio                               R      2.001772073169595E+00
SCF Energy                                 R     -2.307551457769703E+02
MP2 Energy                                 R     -2.315842575104167E+02
Total Energy                               R     -2.315842575104167E+02
Post-SCF wavefunction norm                 R      1.618030514908251E+00
RMS Force                                  R      5.821355595247747E-07
RMS Density                                R      8.481529962229387E-10
External E-field                           R   N=          35
  0.00000000E+00  0.00000000E+00  0.00000000E+00  0.00000000E+00  0.00000000E+00
  0.00000000E+00  0.00000000E+00  0.00000000E+00  0.00000000E+00  0.00000000E+00
  0.00000000E+00  0.00000000E+00  0.00000000E+00  0.00000000E+00  0.00000000E+00
  0.00000000E+00  0.00000000E+00  0.00000000E+00  0.00000000E+00  0.00000000E+00
  0.00000000E+00  0.00000000E+00  0.00000000E+00  0.00000000E+00  0.00000000E+00
  0.00000000E+00  0.00000000E+00  0.00000000E+00  0.00000000E+00  0.00000000E+00
  0.00000000E+00  0.00000000E+00  0.00000000E+00  0.00000000E+00  0.00000000E+00
IOpCl                                      I                0
IROHF                                      I                0
Alpha Orbital Energies                     R   N=         174
 -1.12412574E+01 -1.12407028E+01 -1.12407027E+01 -1.12395046E+01 -1.12395045E+01
 -1.12389169E+01 -1.14887030E+00 -1.01454835E+00 -1.01454789E+00 -8.24147351E-01
 -8.24146819E-01 -7.08556612E-01 -6.45157575E-01 -6.18729111E-01 -5.88612106E-01
 -5.88610993E-01 -4.99792210E-01 -4.96001460E-01 -4.96000325E-01 -3.36189213E-01
 -3.36188923E-01  4.21413712E-02  4.89385021E-02  4.89385330E-02  6.61638564E-02
  6.61638990E-02  8.79413109E-02  1.08065635E-01  1.08065988E-01  1.29648197E-01
  1.52715629E-01  1.52715684E-01  1.58084082E-01  1.62679405E-01  1.80708822E-01
  1.80708927E-01  1.83438222E-01  1.83438230E-01  1.92777396E-01  2.08853194E-01
  2.12121778E-01  2.12121857E-01  2.15727708E-01  2.15727897E-01  2.16755593E-01
  2.28189731E-01  2.28189850E-01  2.49999405E-01  2.49999416E-01  2.89003475E-01
  2.89003568E-01  3.02849075E-01  3.33248730E-01  3.33254845E-01  3.65643114E-01
  4.07418568E-01  4.07418773E-01  4.27790223E-01  4.27790251E-01  4.38096429E-01
  4.96467895E-01  4.96468070E-01  5.06126695E-01  5.06127215E-01  6.04726481E-01
  6.07496860E-01  7.15881744E-01  7.22461427E-01  7.22461478E-01  7.22825871E-01
  7.46889225E-01  7.48245355E-01  7.48245762E-01  7.58669241E-01  7.58669382E-01
  7.96265945E-01  8.19228903E-01  8.19229042E-01  8.84465254E-01  9.38290018E-01
  9.38290648E-01  9.47370083E-01  9.47371092E-01  9.75345012E-01  1.01539667E+00
  1.01539678E+00  1.01855112E+00  1.05934059E+00  1.05934068E+00  1.09689994E+00
  1.11823258E+00  1.11823285E+00  1.12402306E+00  1.17049977E+00  1.21547629E+00
  1.21547700E+00  1.24721529E+00  1.32113817E+00  1.32113955E+00  1.38784248E+00
  1.38784330E+00  1.52002001E+00  1.55829323E+00  1.70884317E+00  1.77991832E+00
  1.77992085E+00  1.79077629E+00  1.82183692E+00  1.84034260E+00  1.84034306E+00
  1.90219072E+00  1.90219197E+00  1.92797805E+00  1.92797995E+00  1.98884233E+00
  2.05204973E+00  2.05205046E+00  2.09795750E+00  2.09795904E+00  2.12283130E+00
  2.23015802E+00  2.23016048E+00  2.23712433E+00  2.24380905E+00  2.24381048E+00
  2.29081321E+00  2.33972435E+00  2.33972461E+00  2.37216396E+00  2.37216493E+00
  2.62891848E+00  2.65205799E+00  2.73187537E+00  2.73187609E+00  2.73912544E+00
  2.80890594E+00  2.80890724E+00  2.94782886E+00  2.94783120E+00  2.98609875E+00
  2.98840124E+00  3.02125998E+00  3.02126048E+00  3.04611002E+00  3.04611011E+00
  3.05491731E+00  3.09155901E+00  3.18907226E+00  3.18907289E+00  3.24846670E+00
  3.29031948E+00  3.29031986E+00  3.31167917E+00  3.31168065E+00  3.47499780E+00
  3.53334275E+00  3.76181395E+00  3.76181451E+00  3.89384355E+00  3.89384413E+00
  3.90866739E+00  4.04988491E+00  4.40026522E+00  4.40026623E+00  4.48733890E+00
  4.56965517E+00  4.56965667E+00  5.26663702E+00  2.47454179E+01  2.51210968E+01
  2.51210977E+01  2.52358827E+01  2.52358841E+01  2.53440835E+01
Alpha MO coefficients                      R   N=       30276
  2.29924648E-01  1.90370879E-01  2.59390299E-05 -1.49869763E-05  0.00000000E+00
  1.99969278E-03  1.58714248E-04 -9.16406889E-05  0.00000000E+00 -3.78521971E-04
 -1.10922131E-05  6.40327458E-06  0.00000000E+00 -8.99442244E-05  1.62722536E-04
 -9.39296764E-05  0.00000000E+00 -1.14196161E-04  0.00000000E+00  0.00000000E+00
 -3.21140904E-05  5.56192009E-05  2.29898387E-01  1.90349126E-01  4.35051576E-10
 -2.99678214E-05  0.00000000E+00  1.99951079E-03  1.31373811E-09 -1.83264720E-04
  0.00000000E+00 -3.78492967E-04 -2.51528580E-09  1.27937958E-05  0.00000000E+00
 -9.02610204E-05  9.23091491E-09 -1.87753676E-04  0.00000000E+00 -1.14173744E-04
  0.00000000E+00  0.00000000E+00  6.42243678E-05 -7.15538787E-10  2.29927486E-01
  1.90373230E-01 -2.59388393E-05 -1.49847652E-05  0.00000000E+00  1.99971188E-03
 -1.58714309E-04 -9.16426532E-05  0.00000000E+00 -3.78524585E-04  1.10905877E-05
  6.40768700E-06  0.00000000E+00 -8.99026522E-05 -1.62726078E-04 -9.39570182E-05
  0.00000000E+00 -1.14198432E-04  0.00000000E+00  0.00000000E+00 -3.21153920E-05
 -5.56189550E-05  2.29924648E-01  1.90370879E-01 -2.59390299E-05  1.49869763E-05
  0.00000000E+00  1.99969278E-03 -1.58714248E-04  9.16406889E-05  0.00000000E+00
 -3.78521971E-04  1.10922131E-05 -6.40327458E-06  0.00000000E+00 -8.99442244E-05
 -1.62722536E-04  9.39296764E-05  0.00000000E+00 -1.14196161E-04  0.00000000E+00
  0.00000000E+00 -3.21140904E-05  5.56192009E-05  2.29898387E-01  1.90349126E-01
 -4.35051576E-10  2.99678214E-05  0.00000000E+00  1.99951079E-03 -1.31373811E-09
  1.83264720E-04  0.00000000E+00 -3.78492967E-04  2.51528580E-09 -1.27937958E-05
  0.00000000E+00 -9.02610204E-05 -9.23091491E-09  1.87753676E-04  0.00000000E+00
 -1.14173744E-04  0.00000000E+00  0.00000000E+00  6.42243678E-05 -7.15538787E-10
  2.29927486E-01  1.90373230E-01  2.59388393E-05  1.49847652E-05  0.00000000E+00
  1.99971188E-03  1.58714309E-04  9.16426532E-05  0.00000000E+00 -3.78524585E-04
 -1.10905877E-05 -6.40768700E-06  0.00000000E+00 -8.99026522E-05  1.62726078E-04
  9.39570182E-05  0.00000000E+00 -1.14198432E-04  0.00000000E+00  0.00000000E+00
 -3.21153920E-05 -5.56189550E-05  1.75697701E-04 -1.07610656E-05  2.35877445E-04
  8.43726197E-05  2.91644908E-05 -1.68387128E-05  0.00000000E+00  1.75678723E-04
 -1.07493263E-05  2.35854932E-04  8.43222830E-05  2.33472789E-10 -3.36774548E-05
  0.00000000E+00  1.75699785E-04 -1.07616801E-05  2.35879996E-04  8.43793213E-05
 -2.91643785E-05 -1.68393245E-05  0.00000000E+00  1.75697701E-04 -1.07610656E-05
  2.35877445E-04  8.43726197E-05 -2.91644908E-05  1.68387128E-05  0.00000000E+00
  1.75678723E-04 -1.07493263E-05  2.35854932E-04  8.43222830E-05 -2.33472789E-10
  3.36774548E-05  0.00000000E+00  1.75699785E-04 -1.07616801E-05  2.35879996E-04
  8.43793213E-05  2.91643785E-05  1.68393245E-05  0.00000000E+00 -2.74564602E-01
 -2.27366854E-01  4.37830376E-05  8.59563054E-05  0.00000000E+00 -2.21647392E-03
 -5.44946429E-05  1.32333916E-04  0.00000000E+00  2.81248227E-04 -7.39551937E-05
 -9.23095130E-05  0.00000000E+00  1.22686645E-03 -5.42254665E-04  1.01721432E-03
  0.00000000E+00  1.59660623E-04  0.00000000E+00  0.00000000E+00  8.57386576E-05
 -3.05283141E-05  1.36239058E-02  1.12819512E-02  1.79617362E-04 -2.52153482E-07
  0.00000000E+00  1.09984237E-04  1.62884976E-04 -5.62607182E-06  0.00000000E+00
 -1.39465197E-05 -2.18007979E-04 -8.95304637E-07  0.00000000E+00 -6.08664504E-05
  1.13703766E-03 -4.85447599E-05  0.00000000E+00 -7.92198323E-06  0.00000000E+00
  0.00000000E+00  3.43971758E-06 -1.09987915E-04  2.88193935E-01  2.38653302E-01
  3.70434793E-05 -7.47808614E-05  0.00000000E+00  2.32649359E-03 -6.52820484E-05
 -1.24902657E-04  0.00000000E+00 -2.95231438E-04 -6.67937688E-05  7.81619142E-05
  0.00000000E+00 -1.28773308E-03 -6.25585364E-04 -9.69975901E-04  0.00000000E+00
 -1.67587262E-04  0.00000000E+00  0.00000000E+00 -8.05406968E-05 -3.75003632E-05
  2.74564602E-01  2.27366854E-01  4.37830376E-05  8.59563054E-05  0.00000000E+00
  2.21647392E-03 -5.44946429E-05  1.32333916E-04  0.00000000E+00 -2.81248227E-04
 -7.39551937E-05 -9.23095130E-05  0.00000000E+00 -1.22686645E-03 -5.42254665E-04
  1.01721432E-03  0.00000000E+00 -1.59660623E-04  0.00000000E+00  0.00000000E+00
 -8.57386576E-05  3.05283141E-05 -1.36239058E-02 -1.12819512E-02  1.79617362E-04
 -2.52153482E-07  0.00000000E+00 -1.09984237E-04  1.62884976E-04 -5.62607182E-06