Clamp-5                                                                 
SP        RMP2-FC                                                     6-311++G(d,p)       
Number of atoms                            I               12
Info1-9                                    I   N=           9
          19          19           0           0           0         110
           1           2           1
Full Title                                 C   N=           1
Clamp-5     
Route                                      C   N=           3
#P MP2/6-311++G** nosymm Density=MP2
Charge                                     I                0
Multiplicity                               I                1
Number of electrons                        I               42
Number of alpha electrons                  I               21
Number of beta electrons                   I               21
Number of basis functions                  I              174
Number of independent functions            I              174
Number of point charges in /Mol/           I                0
Number of translation vectors              I                0
Atomic numbers                             I   N=          12
           6           6           6           6           6           6
           1           1           1           1           1           1
Nuclear charges                            R   N=          12
  6.00000000E+00  6.00000000E+00  6.00000000E+00  6.00000000E+00  6.00000000E+00
  6.00000000E+00  1.00000000E+00  1.00000000E+00  1.00000000E+00  1.00000000E+00
  1.00000000E+00  1.00000000E+00
Current cartesian coordinates              R   N=          36
  2.63686733E+00  8.63812709E-03  0.00000000E+00  1.32587352E+00  2.27920849E+00
  0.00000000E+00 -1.32587352E+00  2.27920849E+00  0.00000000E+00 -2.63686733E+00
  8.63812709E-03  0.00000000E+00 -1.31092956E+00 -2.28783284E+00  0.00000000E+00
  1.31092956E+00 -2.28783284E+00  0.00000000E+00  4.67832163E+00 -1.70009041E-01
  0.00000000E+00  2.19192752E+00  4.13646169E+00  0.00000000E+00 -2.19192752E+00
  4.13646169E+00  0.00000000E+00 -4.67832163E+00 -1.70009041E-01  0.00000000E+00
 -2.48630907E+00 -3.96653525E+00  0.00000000E+00  2.48630907E+00 -3.96653525E+00
  0.00000000E+00
Number of symbols in /Mol/                 I                0
Force Field                                I                0
Atom Types                                 C   N=          12
                                                            
                                                            
                        
Int Atom Types                             I   N=          12
           0           0           0           0           0           0
           0           0           0           0           0           0
MM charges                                 R   N=          12
  0.00000000E+00  0.00000000E+00  0.00000000E+00  0.00000000E+00  0.00000000E+00
  0.00000000E+00  0.00000000E+00  0.00000000E+00  0.00000000E+00  0.00000000E+00
  0.00000000E+00  0.00000000E+00
Integer atomic weights                     I   N=          12
          12          12          12          12          12          12
           1           1           1           1           1           1
Real atomic weights                        R   N=          12
  1.20000000E+01  1.20000000E+01  1.20000000E+01  1.20000000E+01  1.20000000E+01
  1.20000000E+01  1.00782504E+00  1.00782504E+00  1.00782504E+00  1.00782504E+00
  1.00782504E+00  1.00782504E+00
Atom fragment info                         I   N=          12
           0           0           0           0           0           0
           0           0           0           0           0           0
Atom residue num                           I   N=          12
           0           0           0           0           0           0
           0           0           0           0           0           0
Nuclear spins                              I   N=          12
           0           0           0           0           0           0
           1           1           1           1           1           1
Nuclear ZEff                               R   N=          12
 -3.60000000E+00 -3.60000000E+00 -3.60000000E+00 -3.60000000E+00 -3.60000000E+00
 -3.60000000E+00 -1.00000000E+00 -1.00000000E+00 -1.00000000E+00 -1.00000000E+00
 -1.00000000E+00 -1.00000000E+00
Nuclear ZNuc                               R   N=          12
  6.00000000E+00  6.00000000E+00  6.00000000E+00  6.00000000E+00  6.00000000E+00
  6.00000000E+00  1.00000000E+00  1.00000000E+00  1.00000000E+00  1.00000000E+00
  1.00000000E+00  1.00000000E+00
Nuclear QMom                               R   N=          12
  0.00000000E+00  0.00000000E+00  0.00000000E+00  0.00000000E+00  0.00000000E+00
  0.00000000E+00  0.00000000E+00  0.00000000E+00  0.00000000E+00  0.00000000E+00
  0.00000000E+00  0.00000000E+00
Nuclear GFac                               R   N=          12
  0.00000000E+00  0.00000000E+00  0.00000000E+00  0.00000000E+00  0.00000000E+00
  0.00000000E+00  2.79284600E+00  2.79284600E+00  2.79284600E+00  2.79284600E+00
  2.79284600E+00  2.79284600E+00
MicOpt                                     I   N=          12
          -1          -1          -1          -1          -1          -1
          -1          -1          -1          -1          -1          -1
Number of residues                         I                0
Number of secondary structures             I                0
Number of contracted shells                I               66
Number of primitive shells                 I              120
Pure/Cartesian d shells                    I                0
Pure/Cartesian f shells                    I                0
Highest angular momentum                   I                2
Largest degree of contraction              I                6
Shell types                                I   N=          66
           0          -1          -1          -1          -1          -2
           0          -1          -1          -1          -1          -2
           0          -1          -1          -1          -1          -2
           0          -1          -1          -1          -1          -2
           0          -1          -1          -1          -1          -2
           0          -1          -1          -1          -1          -2
           0           0           0           0           1           0
           0           0           0           1           0           0
           0           0           1           0           0           0
           0           1           0           0           0           0
           1           0           0           0           0           1
Number of primitives per shell             I   N=          66
           6           3           1           1           1           1
           6           3           1           1           1           1
           6           3           1           1           1           1
           6           3           1           1           1           1
           6           3           1           1           1           1
           6           3           1           1           1           1
           3           1           1           1           1           3
           1           1           1           1           3           1
           1           1           1           3           1           1
           1           1           3           1           1           1
           1           3           1           1           1           1
Shell to atom map                          I   N=          66
           1           1           1           1           1           1
           2           2           2           2           2           2
           3           3           3           3           3           3
           4           4           4           4           4           4
           5           5           5           5           5           5
           6           6           6           6           6           6
           7           7           7           7           7           8
           8           8           8           8           9           9
           9           9           9          10          10          10
          10          10          11          11          11          11
          11          12          12          12          12          12
Primitive exponents                        R   N=         120
  4.56324000E+03  6.82024000E+02  1.54973000E+02  4.44553000E+01  1.30290000E+01
  1.82773000E+00  2.09642000E+01  4.80331000E+00  1.45933000E+00  4.83456000E-01
  1.45585000E-01  4.38000000E-02  6.26000000E-01  4.56324000E+03  6.82024000E+02
  1.54973000E+02  4.44553000E+01  1.30290000E+01  1.82773000E+00  2.09642000E+01
  4.80331000E+00  1.45933000E+00  4.83456000E-01  1.45585000E-01  4.38000000E-02
  6.26000000E-01  4.56324000E+03  6.82024000E+02  1.54973000E+02  4.44553000E+01
  1.30290000E+01  1.82773000E+00  2.09642000E+01  4.80331000E+00  1.45933000E+00
  4.83456000E-01  1.45585000E-01  4.38000000E-02  6.26000000E-01  4.56324000E+03
  6.82024000E+02  1.54973000E+02  4.44553000E+01  1.30290000E+01  1.82773000E+00
  2.09642000E+01  4.80331000E+00  1.45933000E+00  4.83456000E-01  1.45585000E-01
  4.38000000E-02  6.26000000E-01  4.56324000E+03  6.82024000E+02  1.54973000E+02
  4.44553000E+01  1.30290000E+01  1.82773000E+00  2.09642000E+01  4.80331000E+00
  1.45933000E+00  4.83456000E-01  1.45585000E-01  4.38000000E-02  6.26000000E-01
  4.56324000E+03  6.82024000E+02  1.54973000E+02  4.44553000E+01  1.30290000E+01
  1.82773000E+00  2.09642000E+01  4.80331000E+00  1.45933000E+00  4.83456000E-01
  1.45585000E-01  4.38000000E-02  6.26000000E-01  3.38650000E+01  5.09479000E+00
  1.15879000E+00  3.25840000E-01  1.02741000E-01  3.60000000E-02  7.50000000E-01
  3.38650000E+01  5.09479000E+00  1.15879000E+00  3.25840000E-01  1.02741000E-01
  3.60000000E-02  7.50000000E-01  3.38650000E+01  5.09479000E+00  1.15879000E+00
  3.25840000E-01  1.02741000E-01  3.60000000E-02  7.50000000E-01  3.38650000E+01
  5.09479000E+00  1.15879000E+00  3.25840000E-01  1.02741000E-01  3.60000000E-02
  7.50000000E-01  3.38650000E+01  5.09479000E+00  1.15879000E+00  3.25840000E-01
  1.02741000E-01  3.60000000E-02  7.50000000E-01  3.38650000E+01  5.09479000E+00
  1.15879000E+00  3.25840000E-01  1.02741000E-01  3.60000000E-02  7.50000000E-01
Contraction coefficients                   R   N=         120
  1.96665025E-03  1.52306019E-02  7.61269097E-02  2.60801033E-01  6.16462078E-01
  2.21006028E-01  1.14660081E-01  9.19999648E-01 -3.03068213E-03  1.00000000E+00
  1.00000000E+00  1.00000000E+00  1.00000000E+00  1.96665025E-03  1.52306019E-02
  7.61269097E-02  2.60801033E-01  6.16462078E-01  2.21006028E-01  1.14660081E-01
  9.19999648E-01 -3.03068213E-03  1.00000000E+00  1.00000000E+00  1.00000000E+00
  1.00000000E+00  1.96665025E-03  1.52306019E-02  7.61269097E-02  2.60801033E-01
  6.16462078E-01  2.21006028E-01  1.14660081E-01  9.19999648E-01 -3.03068213E-03
  1.00000000E+00  1.00000000E+00  1.00000000E+00  1.00000000E+00  1.96665025E-03
  1.52306019E-02  7.61269097E-02  2.60801033E-01  6.16462078E-01  2.21006028E-01
  1.14660081E-01  9.19999648E-01 -3.03068213E-03  1.00000000E+00  1.00000000E+00
  1.00000000E+00  1.00000000E+00  1.96665025E-03  1.52306019E-02  7.61269097E-02
  2.60801033E-01  6.16462078E-01  2.21006028E-01  1.14660081E-01  9.19999648E-01
 -3.03068213E-03  1.00000000E+00  1.00000000E+00  1.00000000E+00  1.00000000E+00
  1.96665025E-03  1.52306019E-02  7.61269097E-02  2.60801033E-01  6.16462078E-01
  2.21006028E-01  1.14660081E-01  9.19999648E-01 -3.03068213E-03  1.00000000E+00
  1.00000000E+00  1.00000000E+00  1.00000000E+00  2.54938145E-02  1.90373109E-01
  8.52161486E-01  1.00000000E+00  1.00000000E+00  1.00000000E+00  1.00000000E+00
  2.54938145E-02  1.90373109E-01  8.52161486E-01  1.00000000E+00  1.00000000E+00
  1.00000000E+00  1.00000000E+00  2.54938145E-02  1.90373109E-01  8.52161486E-01
  1.00000000E+00  1.00000000E+00  1.00000000E+00  1.00000000E+00  2.54938145E-02
  1.90373109E-01  8.52161486E-01  1.00000000E+00  1.00000000E+00  1.00000000E+00
  1.00000000E+00  2.54938145E-02  1.90373109E-01  8.52161486E-01  1.00000000E+00
  1.00000000E+00  1.00000000E+00  1.00000000E+00  2.54938145E-02  1.90373109E-01
  8.52161486E-01  1.00000000E+00  1.00000000E+00  1.00000000E+00  1.00000000E+00
P(S=P) Contraction coefficients            R   N=         120
  0.00000000E+00  0.00000000E+00  0.00000000E+00  0.00000000E+00  0.00000000E+00
  0.00000000E+00  4.02486927E-02  2.37593957E-01  8.15853851E-01  1.00000000E+00
  1.00000000E+00  1.00000000E+00  0.00000000E+00  0.00000000E+00  0.00000000E+00
  0.00000000E+00  0.00000000E+00  0.00000000E+00  0.00000000E+00  4.02486927E-02
  2.37593957E-01  8.15853851E-01  1.00000000E+00  1.00000000E+00  1.00000000E+00
  0.00000000E+00  0.00000000E+00  0.00000000E+00  0.00000000E+00  0.00000000E+00
  0.00000000E+00  0.00000000E+00  4.02486927E-02  2.37593957E-01  8.15853851E-01
  1.00000000E+00  1.00000000E+00  1.00000000E+00  0.00000000E+00  0.00000000E+00
  0.00000000E+00  0.00000000E+00  0.00000000E+00  0.00000000E+00  0.00000000E+00
  4.02486927E-02  2.37593957E-01  8.15853851E-01  1.00000000E+00  1.00000000E+00
  1.00000000E+00  0.00000000E+00  0.00000000E+00  0.00000000E+00  0.00000000E+00
  0.00000000E+00  0.00000000E+00  0.00000000E+00  4.02486927E-02  2.37593957E-01
  8.15853851E-01  1.00000000E+00  1.00000000E+00  1.00000000E+00  0.00000000E+00
  0.00000000E+00  0.00000000E+00  0.00000000E+00  0.00000000E+00  0.00000000E+00
  0.00000000E+00  4.02486927E-02  2.37593957E-01  8.15853851E-01  1.00000000E+00
  1.00000000E+00  1.00000000E+00  0.00000000E+00  0.00000000E+00  0.00000000E+00
  0.00000000E+00  0.00000000E+00  0.00000000E+00  0.00000000E+00  0.00000000E+00
  0.00000000E+00  0.00000000E+00  0.00000000E+00  0.00000000E+00  0.00000000E+00
  0.00000000E+00  0.00000000E+00  0.00000000E+00  0.00000000E+00  0.00000000E+00
  0.00000000E+00  0.00000000E+00  0.00000000E+00  0.00000000E+00  0.00000000E+00
  0.00000000E+00  0.00000000E+00  0.00000000E+00  0.00000000E+00  0.00000000E+00
  0.00000000E+00  0.00000000E+00  0.00000000E+00  0.00000000E+00  0.00000000E+00
  0.00000000E+00  0.00000000E+00  0.00000000E+00  0.00000000E+00  0.00000000E+00
  0.00000000E+00  0.00000000E+00  0.00000000E+00  0.00000000E+00  0.00000000E+00
Coordinates of each shell                  R   N=         198
  2.63686733E+00  8.63812709E-03  0.00000000E+00  2.63686733E+00  8.63812709E-03
  0.00000000E+00  2.63686733E+00  8.63812709E-03  0.00000000E+00  2.63686733E+00
  8.63812709E-03  0.00000000E+00  2.63686733E+00  8.63812709E-03  0.00000000E+00
  2.63686733E+00  8.63812709E-03  0.00000000E+00  1.32587352E+00  2.27920849E+00
  0.00000000E+00  1.32587352E+00  2.27920849E+00  0.00000000E+00  1.32587352E+00
  2.27920849E+00  0.00000000E+00  1.32587352E+00  2.27920849E+00  0.00000000E+00
  1.32587352E+00  2.27920849E+00  0.00000000E+00  1.32587352E+00  2.27920849E+00
  0.00000000E+00 -1.32587352E+00  2.27920849E+00  0.00000000E+00 -1.32587352E+00
  2.27920849E+00  0.00000000E+00 -1.32587352E+00  2.27920849E+00  0.00000000E+00
 -1.32587352E+00  2.27920849E+00  0.00000000E+00 -1.32587352E+00  2.27920849E+00
  0.00000000E+00 -1.32587352E+00  2.27920849E+00  0.00000000E+00 -2.63686733E+00
  8.63812709E-03  0.00000000E+00 -2.63686733E+00  8.63812709E-03  0.00000000E+00
 -2.63686733E+00  8.63812709E-03  0.00000000E+00 -2.63686733E+00  8.63812709E-03
  0.00000000E+00 -2.63686733E+00  8.63812709E-03  0.00000000E+00 -2.63686733E+00
  8.63812709E-03  0.00000000E+00 -1.31092956E+00 -2.28783284E+00  0.00000000E+00
 -1.31092956E+00 -2.28783284E+00  0.00000000E+00 -1.31092956E+00 -2.28783284E+00
  0.00000000E+00 -1.31092956E+00 -2.28783284E+00  0.00000000E+00 -1.31092956E+00
 -2.28783284E+00  0.00000000E+00 -1.31092956E+00 -2.28783284E+00  0.00000000E+00
  1.31092956E+00 -2.28783284E+00  0.00000000E+00  1.31092956E+00 -2.28783284E+00
  0.00000000E+00  1.31092956E+00 -2.28783284E+00  0.00000000E+00  1.31092956E+00
 -2.28783284E+00  0.00000000E+00  1.31092956E+00 -2.28783284E+00  0.00000000E+00
  1.31092956E+00 -2.28783284E+00  0.00000000E+00  4.67832163E+00 -1.70009041E-01
  0.00000000E+00  4.67832163E+00 -1.70009041E-01  0.00000000E+00  4.67832163E+00
 -1.70009041E-01  0.00000000E+00  4.67832163E+00 -1.70009041E-01  0.00000000E+00
  4.67832163E+00 -1.70009041E-01  0.00000000E+00  2.19192752E+00  4.13646169E+00
  0.00000000E+00  2.19192752E+00  4.13646169E+00  0.00000000E+00  2.19192752E+00
  4.13646169E+00  0.00000000E+00  2.19192752E+00  4.13646169E+00  0.00000000E+00
  2.19192752E+00  4.13646169E+00  0.00000000E+00 -2.19192752E+00  4.13646169E+00
  0.00000000E+00 -2.19192752E+00  4.13646169E+00  0.00000000E+00 -2.19192752E+00
  4.13646169E+00  0.00000000E+00 -2.19192752E+00  4.13646169E+00  0.00000000E+00
 -2.19192752E+00  4.13646169E+00  0.00000000E+00 -4.67832163E+00 -1.70009041E-01
  0.00000000E+00 -4.67832163E+00 -1.70009041E-01  0.00000000E+00 -4.67832163E+00
 -1.70009041E-01  0.00000000E+00 -4.67832163E+00 -1.70009041E-01  0.00000000E+00
 -4.67832163E+00 -1.70009041E-01  0.00000000E+00 -2.48630907E+00 -3.96653525E+00
  0.00000000E+00 -2.48630907E+00 -3.96653525E+00  0.00000000E+00 -2.48630907E+00
 -3.96653525E+00  0.00000000E+00 -2.48630907E+00 -3.96653525E+00  0.00000000E+00
 -2.48630907E+00 -3.96653525E+00  0.00000000E+00  2.48630907E+00 -3.96653525E+00
  0.00000000E+00  2.48630907E+00 -3.96653525E+00  0.00000000E+00  2.48630907E+00
 -3.96653525E+00  0.00000000E+00  2.48630907E+00 -3.96653525E+00  0.00000000E+00
  2.48630907E+00 -3.96653525E+00  0.00000000E+00
Num ILSW                                   I              100
ILSW                                       I   N=         100
           0           0           0           0           2           0
           0           0           0           0           0          -1
           5           0           0           0           0           0
           0           0           0           0           0           0
           1           1           0           0           0           0
           0           0      100000           0          -1           0
           0           0           0           0           0           0
           0           0           0           1           0           0
           0 -2000000000           1           0           0           0
           0           0           4          52           0           0
           0           0           0           0           0           0
           0           0           0          12           0           1
           0           0           0           0           0           0
           0           0           0           0           0           0
           0           0           0           0           0           0
           0           0           0           0           0           0
           0           0           0           0
Num RLSW                                   I               52
RLSW                                       R   N=          52
  1.00000000E+00  1.00000000E+00  1.00000000E+00  1.00000000E+00  1.00000000E+00
  0.00000000E+00  0.00000000E+00  1.00000000E+00  0.00000000E+00  0.00000000E+00
  0.00000000E+00  0.00000000E+00  1.00000000E+00  0.00000000E+00  0.00000000E+00
  0.00000000E+00  0.00000000E+00  1.00000000E+00  0.00000000E+00  0.00000000E+00
  0.00000000E+00  0.00000000E+00  1.00000000E+00  0.00000000E+00  0.00000000E+00
  0.00000000E+00  0.00000000E+00  1.00000000E+00  0.00000000E+00  0.00000000E+00
  0.00000000E+00  0.00000000E+00  1.00000000E+00  0.00000000E+00  0.00000000E+00
  0.00000000E+00  0.00000000E+00  0.00000000E+00  1.00000000E+00  1.00000000E+00
  0.00000000E+00  1.00000000E+00  0.00000000E+00  0.00000000E+00  0.00000000E+00
  0.00000000E+00  0.00000000E+00  0.00000000E+00  0.00000000E+00  0.00000000E+00
  0.00000000E+00  0.00000000E+00
MxBond                                     I                3
NBond                                      I   N=          12
           3           3           3           3           3           3
           1           1           1           1           1           1
IBond                                      I   N=          36
           2           6           7           1           3           8
           2           4           9           3           5          10
           4           6          11           1           5          12
           1           0           0           2           0           0
           3           0           0           4           0           0
           5           0           0           6           0           0
RBond                                      R   N=          36
  1.50000000E+00  1.50000000E+00  1.00000000E+00  1.50000000E+00  1.50000000E+00
  1.00000000E+00  1.50000000E+00  1.50000000E+00  1.00000000E+00  1.50000000E+00
  1.50000000E+00  1.00000000E+00  1.50000000E+00  1.50000000E+00  1.00000000E+00
  1.50000000E+00  1.50000000E+00  1.00000000E+00  1.00000000E+00  0.00000000E+00
  0.00000000E+00  1.00000000E+00  0.00000000E+00  0.00000000E+00  1.00000000E+00
  0.00000000E+00  0.00000000E+00  1.00000000E+00  0.00000000E+00  0.00000000E+00
  1.00000000E+00  0.00000000E+00  0.00000000E+00  1.00000000E+00  0.00000000E+00
  0.00000000E+00
Virial Ratio                               R      2.001291308683827E+00
SCF Energy                                 R     -2.307503644371806E+02
MP2 Energy                                 R     -2.315790658797710E+02
Total Energy                               R     -2.315790658797710E+02
Post-SCF wavefunction norm                 R      1.143570561211895E+00
RMS Density                                R      4.663259508097785E-09
Job Status                                 I                1
Nuclear derivative order                   I                0
External E-field                           R   N=          35
  0.00000000E+00  0.00000000E+00  0.00000000E+00  0.00000000E+00  0.00000000E+00
  0.00000000E+00  0.00000000E+00  0.00000000E+00  0.00000000E+00  0.00000000E+00
  0.00000000E+00  0.00000000E+00  0.00000000E+00  0.00000000E+00  0.00000000E+00
  0.00000000E+00  0.00000000E+00  0.00000000E+00  0.00000000E+00  0.00000000E+00
  0.00000000E+00  0.00000000E+00  0.00000000E+00  0.00000000E+00  0.00000000E+00
  0.00000000E+00  0.00000000E+00  0.00000000E+00  0.00000000E+00  0.00000000E+00
  0.00000000E+00  0.00000000E+00  0.00000000E+00  0.00000000E+00  0.00000000E+00
IOpCl                                      I                0
IROHF                                      I                0
Alpha Orbital Energies                     R   N=         174
 -1.12395300E+01 -1.12389631E+01 -1.12389617E+01 -1.12377335E+01 -1.12377321E+01
 -1.12371324E+01 -1.15214268E+00 -1.01677190E+00 -1.01676890E+00 -8.25793608E-01
 -8.25787193E-01 -7.12545100E-01 -6.43684216E-01 -6.19563642E-01 -5.89597669E-01
 -5.89586952E-01 -5.01934605E-01 -4.94561215E-01 -4.94545996E-01 -3.37248383E-01
 -3.37247854E-01  4.20895822E-02  4.89439431E-02  4.89443198E-02  6.63064722E-02
  6.63067607E-02  8.81380811E-02  1.08886426E-01  1.08890970E-01  1.29315007E-01
  1.52601434E-01  1.52601882E-01  1.57749398E-01  1.62606152E-01  1.79618738E-01
  1.79620027E-01  1.84518102E-01  1.84518179E-01  1.92344263E-01  2.09218450E-01
  2.12445311E-01  2.12445958E-01  2.16070389E-01  2.16072987E-01  2.17362365E-01
  2.28031562E-01  2.28032836E-01  2.50356624E-01  2.50357078E-01  2.88795894E-01
  2.88796907E-01  3.02762297E-01  3.33388882E-01  3.33777904E-01  3.68094006E-01
  4.02978760E-01  4.02981933E-01  4.32596720E-01  4.32599211E-01  4.39989064E-01
  4.95550230E-01  4.95553773E-01  5.11480296E-01  5.11485528E-01  5.98761375E-01
  6.17575964E-01  7.15250713E-01  7.19953972E-01  7.22840030E-01  7.22841093E-01
  7.50926703E-01  7.50931421E-01  7.55445280E-01  7.57630898E-01  7.57633046E-01
  7.96486242E-01  8.19368169E-01  8.19370041E-01  8.85761227E-01  9.34852909E-01
  9.34859034E-01  9.52056235E-01  9.52060985E-01  9.74411849E-01  1.01569265E+00
  1.01770008E+00  1.01770137E+00  1.05862285E+00  1.05862355E+00  1.10122214E+00
  1.12161563E+00  1.12162011E+00  1.13211635E+00  1.16862326E+00  1.21724041E+00
  1.21724782E+00  1.24849467E+00  1.32205665E+00  1.32206949E+00  1.39243307E+00
  1.39244200E+00  1.52469019E+00  1.55862137E+00  1.70143369E+00  1.76900568E+00
  1.76903180E+00  1.78757030E+00  1.82244435E+00  1.84017198E+00  1.84017815E+00
  1.87846692E+00  1.87848170E+00  1.96216387E+00  1.96216982E+00  1.99060214E+00
  2.05406037E+00  2.05406054E+00  2.12180871E+00  2.12182404E+00  2.14124222E+00
  2.21722850E+00  2.22936565E+00  2.22939278E+00  2.24345657E+00  2.24346803E+00
  2.29742152E+00  2.34963993E+00  2.34964569E+00  2.38589872E+00  2.38590592E+00
  2.59869259E+00  2.70023994E+00  2.72222353E+00  2.72223383E+00  2.74285996E+00
  2.81781233E+00  2.81782370E+00  2.96161248E+00  2.96163122E+00  2.96380183E+00
  2.96956418E+00  3.01026076E+00  3.01026567E+00  3.05726965E+00  3.06313398E+00
  3.06314008E+00  3.09983288E+00  3.19093237E+00  3.19093795E+00  3.28347953E+00
  3.29331077E+00  3.29331349E+00  3.32648504E+00  3.32649600E+00  3.47988469E+00
  3.54450407E+00  3.76754775E+00  3.76756334E+00  3.90793346E+00  3.90793668E+00
  3.90985795E+00  4.07018914E+00  4.40402144E+00  4.40403418E+00  4.50075594E+00
  4.57056257E+00  4.57057629E+00  5.27343715E+00  2.47414720E+01  2.51272237E+01
  2.51272507E+01  2.52677949E+01  2.52678087E+01  2.53729916E+01
Alpha MO coefficients                      R   N=       30276
  2.30086682E-01  1.90508101E-01 -3.14764893E-05  1.00499184E-05  4.94071535E-16
  2.02569808E-03 -1.79708606E-04 -5.04618237E-06 -1.03747460E-15 -3.87515754E-04
  1.37173961E-05  8.28000959E-06  2.89498393E-15 -1.03216632E-04 -1.99112484E-04
  2.87369971E-05 -1.17468198E-14 -1.17897530E-04 -3.37834083E-17  3.25181271E-16
 -6.34269823E-05 -1.10370235E-05  2.29693796E-01  1.90182693E-01 -6.91956057E-06
 -3.24905150E-05 -9.44084215E-16  2.02279092E-03 -9.40206014E-05 -1.53018000E-04
  1.61828154E-15 -3.87059391E-04  1.38981527E-05  7.66441923E-06 -3.97892864E-15
 -1.06737290E-04 -7.35568920E-05 -1.85360899E-04  1.23512128E-14 -1.17584886E-04
  2.71095239E-16  1.42086582E-16  2.21288214E-05 -6.04300653E-05  2.29693796E-01
  1.90182693E-01  6.91956059E-06 -3.24905151E-05 -9.62074088E-16  2.02279092E-03
  9.40206015E-05 -1.53018000E-04  7.88840085E-16 -3.87059382E-04 -1.38981501E-05
  7.66441020E-06  2.06684679E-15 -1.06736809E-04  7.35569429E-05 -1.85361007E-04
 -1.05474159E-14 -1.17584886E-04  7.23846403E-17 -2.18782353E-16  2.21288215E-05
  6.04300654E-05  2.30086682E-01  1.90508101E-01  3.14764893E-05  1.00499184E-05
 -3.37580771E-16  2.02569808E-03  1.79708606E-04 -5.04618234E-06  3.42906943E-16
 -3.87515762E-04 -1.37174053E-05  8.28000719E-06 -1.56687575E-15 -1.03217116E-04
  1.99112365E-04  2.87369878E-05  9.30953535E-15 -1.17897530E-04 -2.41367886E-16
 -3.16682191E-16 -6.34269822E-05  1.10370235E-05  2.29947468E-01  1.90392753E-01
  2.45340866E-05  2.23021492E-05 -1.25901799E-16  2.02485952E-03  8.54879889E-05
  1.58154372E-04  1.29973592E-16 -3.87416604E-04  3.46888794E-07 -1.58848415E-05
  1.31831668E-15 -1.06961840E-04  1.24382004E-04  1.57034100E-04 -9.35142941E-15
 -1.17736232E-04  2.42707860E-16 -5.10034604E-18  4.12901771E-05 -4.94541638E-05
  2.29947467E-01  1.90392753E-01 -2.45340866E-05  2.23021491E-05 -2.66332655E-16
  2.02485953E-03 -8.54879889E-05  1.58154372E-04  6.63251952E-16 -3.87416613E-04
 -3.46882160E-07 -1.58848482E-05 -2.14837755E-15 -1.06962324E-04 -1.24381937E-04
  1.57034001E-04  1.05241007E-14 -1.17736232E-04  1.87564888E-16  5.19275976E-17
  4.12901771E-05  4.94541637E-05  1.77472665E-04 -2.44640330E-05  2.51600464E-04
  9.47461777E-05 -2.66572383E-05  1.48782354E-05 -4.52692867E-17  1.77182277E-04
 -2.43232942E-05  2.51208220E-04  9.40188083E-05 -4.47188813E-07 -3.05203752E-05
  8.49047244E-17  1.77182277E-04 -2.43232928E-05  2.51208225E-04  9.40188367E-05
  4.47188902E-07 -3.05203753E-05 -1.90601646E-16  1.77472665E-04 -2.44640344E-05
  2.51600459E-04  9.47461489E-05  2.66572381E-05  1.48782354E-05 -1.33382199E-17
  1.77374262E-04 -2.43629616E-05  2.51540573E-04  9.44820092E-05  2.62306518E-05
  1.56706727E-05  1.67383940E-17  1.77374262E-04 -2.43629631E-05  2.51540568E-04
  9.44819810E-05 -2.62306517E-05  1.56706726E-05  6.87042039E-17  3.25163186E-01
  2.69271068E-01 -6.54445885E-06  1.87976321E-05  3.56017831E-16  2.66067793E-03
 -1.33546718E-04 -8.07677850E-06 -5.08587718E-16 -3.22284074E-04 -1.43180817E-05
  9.67611264E-07  5.95019944E-16 -1.44398072E-03 -1.17572227E-03  1.94265372E-04
 -2.75122634E-15 -1.96651760E-04 -1.57112038E-17  4.31028824E-17 -8.52337423E-05
 -3.22330687E-05  1.70954416E-01  1.41570767E-01  1.45043427E-04 -8.94876345E-05
  3.88914147E-16  1.38660617E-03  8.81782729E-05 -9.15349672E-05 -4.80937842E-16
 -1.49369275E-04 -1.57517024E-04  1.25149575E-04  4.07335137E-16 -1.51032157E-03
  6.87563024E-04 -9.61647311E-04  1.16813588E-15 -1.07950542E-04 -1.19309333E-16
 -1.03541971E-16 -6.79280135E-05 -1.03061625E-04 -1.70954411E-01 -1.41570763E-01
  1.45043429E-04  8.94876350E-05 -7.58713575E-17 -1.38660613E-03  8.81782750E-05
  9.15349659E-05  2.97968166E-16  1.49369271E-04 -1.57517026E-04 -1.25149576E-04
 -7.03341860E-16  1.51032155E-03  6.87563037E-04  9.61647301E-04 -7.62639845E-16
  1.07950540E-04  1.19721722E-16  1.58376663E-17  6.79280144E-05 -1.03061624E-04
 -3.25163186E-01 -2.69271068E-01 -6.54445883E-06 -1.87976292E-05 -1.38454096E-16
 -2.66067793E-03 -1.33546718E-04  8.07678078E-06  1.92440320E-16  3.22284073E-04
 -1.43180824E-05 -9.67614687E-07 -4.34373641E-16  1.44398072E-03 -1.17572227E-03
 -1.94265354E-04  2.30641392E-15  1.96651760E-04 -1.87344550E-16  9.00261578E-17