 Entering Gaussian System, Link 0=g09
 Initial command:
 /apps/software//g09/l1.exe /scratch/itamar/2419.cluster.abaxnet/Gau-26491.inp -scrdir=/scratch/itamar/2419.cluster.abaxnet/
 Entering Link 1 = /apps/software//g09/l1.exe PID=     26492.
  
 Copyright (c) 1988,1990,1992,1993,1995,1998,2003,2009, Gaussian, Inc.
                  All Rights Reserved.
  
 This is part of the Gaussian(R) 09 program.  It is based on
 the Gaussian(R) 03 system (copyright 2003, Gaussian, Inc.),
 the Gaussian(R) 98 system (copyright 1998, Gaussian, Inc.),
 the Gaussian(R) 94 system (copyright 1995, Gaussian, Inc.),
 the Gaussian 92(TM) system (copyright 1992, Gaussian, Inc.),
 the Gaussian 90(TM) system (copyright 1990, Gaussian, Inc.),
 the Gaussian 88(TM) system (copyright 1988, Gaussian, Inc.),
 the Gaussian 86(TM) system (copyright 1986, Carnegie Mellon
 University), and the Gaussian 82(TM) system (copyright 1983,
 Carnegie Mellon University). Gaussian is a federally registered
 trademark of Gaussian, Inc.
  
 This software contains proprietary and confidential information,
 including trade secrets, belonging to Gaussian, Inc.
  
 This software is provided under written license and may be
 used, copied, transmitted, or stored only in accord with that
 written license.
  
 The following legend is applicable only to US Government
 contracts under FAR:
  
                    RESTRICTED RIGHTS LEGEND
  
 Use, reproduction and disclosure by the US Government is
 subject to restrictions as set forth in subparagraphs (a)
 and (c) of the Commercial Computer Software - Restricted
 Rights clause in FAR 52.227-19.
  
 Gaussian, Inc.
 340 Quinnipiac St., Bldg. 40, Wallingford CT 06492
  
  
 ---------------------------------------------------------------
 Warning -- This program may not be used in any manner that
 competes with the business of Gaussian, Inc. or will provide
 assistance to any competitor of Gaussian, Inc.  The licensee
 of this program is prohibited from giving any competitor of
 Gaussian, Inc. access to this program.  By using this program,
 the user acknowledges that Gaussian, Inc. is engaged in the
 business of creating and licensing software in the field of
 computational chemistry and represents and warrants to the
 licensee that it is not a competitor of Gaussian, Inc. and that
 it will not use this program in any manner prohibited above.
 ---------------------------------------------------------------
  

 Cite this work as:
 Gaussian 09, Revision A.02,
 M. J. Frisch, G. W. Trucks, H. B. Schlegel, G. E. Scuseria, 
 M. A. Robb, J. R. Cheeseman, G. Scalmani, V. Barone, B. Mennucci, 
 G. A. Petersson, H. Nakatsuji, M. Caricato, X. Li, H. P. Hratchian, 
 A. F. Izmaylov, J. Bloino, G. Zheng, J. L. Sonnenberg, M. Hada, 
 M. Ehara, K. Toyota, R. Fukuda, J. Hasegawa, M. Ishida, T. Nakajima, 
 Y. Honda, O. Kitao, H. Nakai, T. Vreven, J. A. Montgomery, Jr., 
 J. E. Peralta, F. Ogliaro, M. Bearpark, J. J. Heyd, E. Brothers, 
 K. N. Kudin, V. N. Staroverov, R. Kobayashi, J. Normand, 
 K. Raghavachari, A. Rendell, J. C. Burant, S. S. Iyengar, J. Tomasi, 
 M. Cossi, N. Rega, J. M. Millam, M. Klene, J. E. Knox, J. B. Cross, 
 V. Bakken, C. Adamo, J. Jaramillo, R. Gomperts, R. E. Stratmann, 
 O. Yazyev, A. J. Austin, R. Cammi, C. Pomelli, J. W. Ochterski, 
 R. L. Martin, K. Morokuma, V. G. Zakrzewski, G. A. Voth, 
 P. Salvador, J. J. Dannenberg, S. Dapprich, A. D. Daniels, 
 O. Farkas, J. B. Foresman, J. V. Ortiz, J. Cioslowski, 
 and D. J. Fox, Gaussian, Inc., Wallingford CT, 2009.
 
 ******************************************
 Gaussian 09:  EM64L-G09RevA.02 11-Jun-2009
                 3-Dec-2021 
 ******************************************
 %Mem=3800MB
 %NProcShared=6
 Will use up to    6 processors via shared memory.
 %chk=/home/itamar/Aromaticity-test-set/T2-Clamping/5/clamp-5.chk
 -----------------------------
 #P MP2/6-311++G** DENSITY=MP2
 -----------------------------
 1/30=1,38=1/1;
 2/12=2,17=6,18=5,40=1/2;
 3/5=4,6=6,7=1111,11=9,16=1,25=1,30=1,71=1/1,2,3;
 4//1;
 5/5=2,38=5/2;
 8/6=4,10=2/1;
 9/15=1,16=-3/6;
 10/5=1,13=10/2;
 6/7=2,8=2,9=2,10=2,22=2/1;
 99/5=1,9=1/99;
 Leave Link    1 at Fri Dec  3 11:48:47 2021, MaxMem=  498073600 cpu:       0.3
 (Enter /apps/software//g09/l101.exe)
 -------
 Clamp-5
 -------
 Symbolic Z-matrix:
 Charge =  0 Multiplicity = 1
 6                     0.00458   1.39537   0. 
 6                     1.20611   0.70162   0. 
 6                     1.20611  -0.70162   0. 
 6                     0.00458  -1.39537   0. 
 6                    -1.21066  -0.69371   0. 
 6                    -1.21066   0.69371   0. 
 1                    -0.08996   2.47566   0. 
 1                     2.18893   1.15992   0. 
 1                     2.18893  -1.15992   0. 
 1                    -0.08996  -2.47566   0. 
 1                    -2.09899  -1.3157    0. 
 1                    -2.09899   1.3157    0. 
 
 NAtoms=     12 NQM=     12 NQMF=      0 NMic=      0 NMicF=      0 NTot=     12.
                    Isotopes and Nuclear Properties:
 (Nuclear quadrupole moments (NQMom) in fm**2, nuclear magnetic moments (NMagM)
  in nuclear magnetons)

  Atom         1           2           3           4           5           6           7           8           9          10
 IAtWgt=          12          12          12          12          12          12           1           1           1           1
 AtmWgt=  12.0000000  12.0000000  12.0000000  12.0000000  12.0000000  12.0000000   1.0078250   1.0078250   1.0078250   1.0078250
 NucSpn=           0           0           0           0           0           0           1           1           1           1
 AtZEff=   0.0000000   0.0000000   0.0000000   0.0000000   0.0000000   0.0000000   0.0000000   0.0000000   0.0000000   0.0000000
 NQMom=    0.0000000   0.0000000   0.0000000   0.0000000   0.0000000   0.0000000   0.0000000   0.0000000   0.0000000   0.0000000
 NMagM=    0.0000000   0.0000000   0.0000000   0.0000000   0.0000000   0.0000000   2.7928460   2.7928460   2.7928460   2.7928460

  Atom        11          12
 IAtWgt=           1           1
 AtmWgt=   1.0078250   1.0078250
 NucSpn=           1           1
 AtZEff=   0.0000000   0.0000000
 NQMom=    0.0000000   0.0000000
 NMagM=    2.7928460   2.7928460
 Leave Link  101 at Fri Dec  3 11:48:47 2021, MaxMem=  498073600 cpu:       0.3
 (Enter /apps/software//g09/l202.exe)
                          Input orientation:                          
 ---------------------------------------------------------------------
 Center     Atomic      Atomic             Coordinates (Angstroms)
 Number     Number       Type             X           Y           Z
 ---------------------------------------------------------------------
      1          6           0        0.004577    1.395370    0.000000
      2          6           0        1.206111    0.701622    0.000000
      3          6           0        1.206111   -0.701622    0.000000
      4          6           0        0.004577   -1.395370    0.000000
      5          6           0       -1.210663   -0.693714    0.000000
      6          6           0       -1.210663    0.693714    0.000000
      7          1           0       -0.089959    2.475661    0.000000
      8          1           0        2.188927    1.159918    0.000000
      9          1           0        2.188927   -1.159918    0.000000
     10          1           0       -0.089959   -2.475661    0.000000
     11          1           0       -2.098994   -1.315698    0.000000
     12          1           0       -2.098994    1.315698    0.000000
 ---------------------------------------------------------------------
                    Distance matrix (angstroms):
                    1          2          3          4          5
     1  C    0.000000
     2  C    1.387433   0.000000
     3  C    2.416828   1.403244   0.000000
     4  C    2.790740   2.416828   1.387433   0.000000
     5  C    2.416833   2.790656   2.416787   1.403257   0.000000
     6  C    1.403257   2.416787   2.790656   2.416833   1.387428
     7  H    1.084420   2.197046   3.431461   3.872185   3.361683
     8  H    2.197003   1.084418   2.105055   3.361678   3.872101
     9  H    3.361678   2.105055   1.084418   2.197003   3.431408
    10  H    3.872185   3.431461   2.197046   1.084420   2.105068
    11  H    3.431458   3.872118   3.361668   2.105079   1.084434
    12  H    2.105079   3.361668   3.872118   3.431458   2.197014
                    6          7          8          9         10
     6  C    0.000000
     7  H    2.105068   0.000000
     8  H    3.431408   2.631445   0.000000
     9  H    3.872101   4.290776   2.319836   0.000000
    10  H    3.361683   4.951322   4.290776   2.631445   0.000000
    11  H    2.197014   4.290760   4.951257   4.290750   2.319857
    12  H    1.084434   2.319857   4.290750   4.951257   4.290760
                   11         12
    11  H    0.000000
    12  H    2.631396   0.000000
 Stoichiometry    C6H6
 Framework group  C2V[SGV(C6H6)]
 Deg. of freedom    11
 Full point group                 C2V     NOp   4
 Largest Abelian subgroup         C2V     NOp   4
 Largest concise Abelian subgroup C2      NOp   2
                         Standard orientation:                         
 ---------------------------------------------------------------------
 Center     Atomic      Atomic             Coordinates (Angstroms)
 Number     Number       Type             X           Y           Z
 ---------------------------------------------------------------------
      1          6           0        0.000000    1.395370    0.004571
      2          6           0        0.000000    0.701622    1.206105
      3          6           0        0.000000   -0.701622    1.206105
      4          6           0        0.000000   -1.395370    0.004571
      5          6           0        0.000000   -0.693714   -1.210669
      6          6           0        0.000000    0.693714   -1.210669
      7          1           0        0.000000    2.475661   -0.089965
      8          1           0        0.000000    1.159918    2.188921
      9          1           0        0.000000   -1.159918    2.188921
     10          1           0        0.000000   -2.475661   -0.089965
     11          1           0        0.000000   -1.315698   -2.099000
     12          1           0        0.000000    1.315698   -2.099000
 ---------------------------------------------------------------------
 Rotational constants (GHZ):      5.7011619      5.7009325      2.8505236
 Leave Link  202 at Fri Dec  3 11:48:47 2021, MaxMem=  498073600 cpu:       0.1
 (Enter /apps/software//g09/l301.exe)
 Standard basis: 6-311++G(d,p) (5D, 7F)
 Ernie: Thresh=  0.10000D-02 Tol=  0.10000D-05 Strict=F.
 There are    66 symmetry adapted basis functions of A1  symmetry.
 There are    21 symmetry adapted basis functions of A2  symmetry.
 There are    21 symmetry adapted basis functions of B1  symmetry.
 There are    66 symmetry adapted basis functions of B2  symmetry.
 Integral buffers will be    131072 words long.
 Raffenetti 1 integral format.
 Two-electron integral symmetry is turned on.
   174 basis functions,   270 primitive gaussians,   180 cartesian basis functions
    21 alpha electrons       21 beta electrons
       nuclear repulsion energy       203.4682984829 Hartrees.
 IExCor=    0 DFT=F Ex=HF Corr=None ExCW=0 ScaHFX=  1.000000
 ScaDFX=  1.000000  1.000000  1.000000  1.000000 ScalE2=  1.000000  1.000000
 IRadAn=      0 IRanWt=     -1 IRanGd=            0 ICorTp=0
 NAtoms=   12 NActive=   12 NUniq=    6 SFac= 3.00D+00 NAtFMM=   80 NAOKFM=F Big=F
 Leave Link  301 at Fri Dec  3 11:48:47 2021, MaxMem=  498073600 cpu:       0.2
 (Enter /apps/software//g09/l302.exe)
 NPDir=0 NMtPBC=     1 NCelOv=     1 NCel=       1 NClECP=     1 NCelD=      1
         NCelK=      1 NCelE2=     1 NClLst=     1 CellRange=     0.0.
 One-electron integrals computed using PRISM.
 One-electron integral symmetry used in STVInt
 NBasis=   174 RedAO= T  NBF=    66    21    21    66
 NBsUse=   174 1.00D-06 NBFU=    66    21    21    66
 Leave Link  302 at Fri Dec  3 11:48:47 2021, MaxMem=  498073600 cpu:       1.4
 (Enter /apps/software//g09/l303.exe)
 DipDrv:  MaxL=1.
 Leave Link  303 at Fri Dec  3 11:48:47 2021, MaxMem=  498073600 cpu:       0.2
 (Enter /apps/software//g09/l401.exe)
 Harris functional with IExCor=  205 diagonalized for initial guess.
 ExpMin= 3.60D-02 ExpMax= 4.56D+03 ExpMxC= 6.82D+02 IAcc=3 IRadAn=         0 AccDes= 0.00D+00
 HarFok:  IExCor=  205 AccDes= 0.00D+00 IRadAn=         0 IDoV= 1
 ScaDFX=  1.000000  1.000000  1.000000  1.000000
 FoFCou: FMM=F IPFlag=           0 FMFlag=      100000 FMFlg1=           0
         NFxFlg=           0 DoJE=T BraDBF=F KetDBF=T FulRan=T
         Omega=  0.000000  0.000000  1.000000  0.000000  0.000000 ICntrl=     500 IOpCl=  0
         NMat0=    1 NMatS0=    1 NMatT0=    0 NMatD0=    1 NMtDS0=    0 NMtDT0=    0
         I1Cent=           4 NGrid=           0.
 Petite list used in FoFCou.
 Harris En= -231.146389650813    
 Initial guess orbital symmetries:
       Occupied  (A1) (A1) (B2) (B2) (A1) (B2) (A1) (B2) (A1) (A1)
                 (B2) (A1) (A1) (B2) (B2) (A1) (B1) (A1) (B2) (A2)
                 (B1)
       Virtual   (B1) (A2) (A1) (A2) (A1) (B2) (A1) (B2) (A1) (B1)
                 (B2) (A1) (B1) (A2) (A1) (B2) (A1) (A1) (B2) (A1)
                 (B2) (B1) (A2) (A1) (B2) (B2) (A1) (B2) (A2) (A1)
                 (B2) (A1) (A1) (B2) (A1) (B2) (B2) (B2) (A1) (B2)
                 (B2) (A1) (B2) (A1) (B2) (A1) (B2) (B1) (A1) (B2)
                 (A1) (B2) (A1) (B1) (A2) (A2) (B1) (A2) (B2) (A1)
                 (A1) (B2) (B2) (A1) (B2) (B2) (A1) (A1) (B2) (B1)
                 (A1) (B2) (B2) (B1) (A2) (B1) (B2) (A1) (B1) (A2)
                 (A1) (B2) (A1) (B2) (A1) (A1) (A2) (B1) (A2) (B2)
                 (A1) (A1) (B2) (B1) (A2) (B1) (B2) (A1) (A1) (B1)
                 (A2) (B2) (A1) (B2) (B2) (B2) (A1) (A2) (B1) (A2)
                 (A2) (A1) (B2) (A1) (A1) (B2) (B1) (A1) (B2) (B2)
                 (A1) (A2) (B1) (A1) (B2) (A1) (B2) (B2) (A2) (B1)
                 (B2) (A1) (B2) (A1) (A2) (B2) (A1) (B2) (A1) (A1)
                 (B2) (B2) (A1) (B2) (A1) (B2) (B2) (A1) (A1) (B2)
                 (A1) (B2) (B2)
 The electronic state of the initial guess is 1-A1.
 Leave Link  401 at Fri Dec  3 11:48:48 2021, MaxMem=  498073600 cpu:       2.2
 (Enter /apps/software//g09/l502.exe)
 Closed shell SCF:
 Requested convergence on RMS density matrix=1.00D-08 within 128 cycles.
 Requested convergence on MAX density matrix=1.00D-06.
 Requested convergence on             energy=1.00D-06.
 No special actions if energy rises.
 Using DIIS extrapolation, IDIIS=  1040.
 Integral symmetry usage will be decided dynamically.
 Keep R1 ints in memory in canonical form, NReq=135773131.
 IEnd=      118142 IEndB=      118142 NGot=   498073600 MDV=   365314456
 LenX=   365314456 LenY=   365281615
 Symmetry not used in FoFDir.
 MinBra= 0 MaxBra= 2 Meth= 1.
 IRaf=       0 NMat=   1 IRICut=       1 DoRegI=T DoRafI=F ISym2E= 0 JSym2E=0.

 Cycle   1  Pass 1  IDiag  1:
 E= -230.447660653636    
 DIIS: error= 7.29D-02 at cycle   1 NSaved=   1.
 NSaved= 1 IEnMin= 1 EnMin= -230.447660653636     IErMin= 1 ErrMin= 7.29D-02
 ErrMax= 7.29D-02 EMaxC= 1.00D-01 BMatC= 5.17D-01 BMatP= 5.17D-01
 IDIUse=3 WtCom= 2.71D-01 WtEn= 7.29D-01
 Coeff-Com:  0.100D+01
 Coeff-En:   0.100D+01
 Coeff:      0.100D+01
 Gap=     0.333 Goal=   None    Shift=    0.000
 GapD=    0.333 DampG=1.000 DampE=0.500 DampFc=0.5000 IDamp=-1.
 Damping current iteration by 5.00D-01
 RMSDP=1.06D-02 MaxDP=3.02D-01              OVMax= 1.60D-01

 Cycle   2  Pass 1  IDiag  1:
 E= -230.606845134222     Delta-E=       -0.159184480586 Rises=F Damp=T
 DIIS: error= 3.13D-02 at cycle   2 NSaved=   2.
 NSaved= 2 IEnMin= 2 EnMin= -230.606845134222     IErMin= 2 ErrMin= 3.13D-02
 ErrMax= 3.13D-02 EMaxC= 1.00D-01 BMatC= 1.11D-01 BMatP= 5.17D-01
 IDIUse=3 WtCom= 6.87D-01 WtEn= 3.13D-01
 Coeff-Com: -0.686D+00 0.169D+01
 Coeff-En:   0.000D+00 0.100D+01
 Coeff:     -0.471D+00 0.147D+01
 Gap=     0.389 Goal=   None    Shift=    0.000
 RMSDP=5.61D-03 MaxDP=1.80D-01 DE=-1.59D-01 OVMax= 4.93D-02

 Cycle   3  Pass 1  IDiag  1:
 E= -230.749160836937     Delta-E=       -0.142315702715 Rises=F Damp=F
 DIIS: error= 5.07D-03 at cycle   3 NSaved=   3.
 NSaved= 3 IEnMin= 3 EnMin= -230.749160836937     IErMin= 3 ErrMin= 5.07D-03
 ErrMax= 5.07D-03 EMaxC= 1.00D-01 BMatC= 1.21D-03 BMatP= 1.11D-01
 IDIUse=3 WtCom= 9.49D-01 WtEn= 5.07D-02
 Coeff-Com: -0.936D-01 0.149D+00 0.944D+00
 Coeff-En:   0.000D+00 0.000D+00 0.100D+01
 Coeff:     -0.889D-01 0.142D+00 0.947D+00
 Gap=     0.379 Goal=   None    Shift=    0.000
 RMSDP=1.10D-03 MaxDP=3.36D-02 DE=-1.42D-01 OVMax= 9.02D-03

 Cycle   4  Pass 1  IDiag  1:
 E= -230.750314597198     Delta-E=       -0.001153760261 Rises=F Damp=F
 DIIS: error= 1.13D-03 at cycle   4 NSaved=   4.
 NSaved= 4 IEnMin= 4 EnMin= -230.750314597198     IErMin= 4 ErrMin= 1.13D-03
 ErrMax= 1.13D-03 EMaxC= 1.00D-01 BMatC= 2.59D-05 BMatP= 1.21D-03
 IDIUse=3 WtCom= 9.89D-01 WtEn= 1.13D-02
 Coeff-Com:  0.886D-02-0.211D-01-0.101D-01 0.102D+01
 Coeff-En:   0.000D+00 0.000D+00 0.000D+00 0.100D+01
 Coeff:      0.876D-02-0.208D-01-0.100D-01 0.102D+01
 Gap=     0.379 Goal=   None    Shift=    0.000
 RMSDP=2.16D-04 MaxDP=6.55D-03 DE=-1.15D-03 OVMax= 1.86D-03

 Cycle   5  Pass 1  IDiag  1:
 E= -230.750359862469     Delta-E=       -0.000045265271 Rises=F Damp=F
 DIIS: error= 2.46D-04 at cycle   5 NSaved=   5.
 NSaved= 5 IEnMin= 5 EnMin= -230.750359862469     IErMin= 5 ErrMin= 2.46D-04
 ErrMax= 2.46D-04 EMaxC= 1.00D-01 BMatC= 1.80D-06 BMatP= 2.59D-05
 IDIUse=3 WtCom= 9.98D-01 WtEn= 2.46D-03
 Coeff-Com:  0.313D-02-0.419D-02-0.426D-01-0.195D+00 0.124D+01
 Coeff-En:   0.000D+00 0.000D+00 0.000D+00 0.000D+00 0.100D+01
 Coeff:      0.313D-02-0.418D-02-0.425D-01-0.194D+00 0.124D+01
 Gap=     0.379 Goal=   None    Shift=    0.000
 RMSDP=4.70D-05 MaxDP=1.21D-03 DE=-4.53D-05 OVMax= 6.89D-04

 Cycle   6  Pass 1  IDiag  1:
 E= -230.750364171205     Delta-E=       -0.000004308735 Rises=F Damp=F
 DIIS: error= 4.81D-05 at cycle   6 NSaved=   6.
 NSaved= 6 IEnMin= 6 EnMin= -230.750364171205     IErMin= 6 ErrMin= 4.81D-05
 ErrMax= 4.81D-05 EMaxC= 1.00D-01 BMatC= 3.43D-08 BMatP= 1.80D-06
 IDIUse=1 WtCom= 1.00D+00 WtEn= 0.00D+00
 Coeff-Com: -0.726D-03 0.103D-02 0.104D-01 0.376D-01-0.307D+00 0.126D+01
 Coeff:     -0.726D-03 0.103D-02 0.104D-01 0.376D-01-0.307D+00 0.126D+01
 Gap=     0.379 Goal=   None    Shift=    0.000
 RMSDP=1.27D-05 MaxDP=3.40D-04 DE=-4.31D-06 OVMax= 2.77D-04

 Cycle   7  Pass 1  IDiag  1:
 E= -230.750364375242     Delta-E=       -0.000000204038 Rises=F Damp=F
 DIIS: error= 2.62D-05 at cycle   7 NSaved=   7.
 NSaved= 7 IEnMin= 7 EnMin= -230.750364375242     IErMin= 7 ErrMin= 2.62D-05
 ErrMax= 2.62D-05 EMaxC= 1.00D-01 BMatC= 7.83D-09 BMatP= 3.43D-08
 IDIUse=1 WtCom= 1.00D+00 WtEn= 0.00D+00
 Coeff-Com:  0.382D-03-0.548D-03-0.620D-02-0.192D-01 0.184D+00-0.118D+01
 Coeff-Com:  0.202D+01
 Coeff:      0.382D-03-0.548D-03-0.620D-02-0.192D-01 0.184D+00-0.118D+01
 Coeff:      0.202D+01
 Gap=     0.379 Goal=   None    Shift=    0.000
 RMSDP=3.36D-06 MaxDP=4.94D-05 DE=-2.04D-07 OVMax= 2.60D-04

 Cycle   8  Pass 1  IDiag  1:
 E= -230.750364449410     Delta-E=       -0.000000074168 Rises=F Damp=F
 DIIS: error= 5.65D-06 at cycle   8 NSaved=   8.
 NSaved= 8 IEnMin= 8 EnMin= -230.750364449410     IErMin= 8 ErrMin= 5.65D-06
 ErrMax= 5.65D-06 EMaxC= 1.00D-01 BMatC= 4.40D-10 BMatP= 7.83D-09
 IDIUse=1 WtCom= 1.00D+00 WtEn= 0.00D+00
 Coeff-Com: -0.812D-04 0.116D-03 0.157D-02 0.437D-02-0.454D-01 0.371D+00
 Coeff-Com: -0.882D+00 0.155D+01
 Coeff:     -0.812D-04 0.116D-03 0.157D-02 0.437D-02-0.454D-01 0.371D+00
 Coeff:     -0.882D+00 0.155D+01
 Gap=     0.379 Goal=   None    Shift=    0.000
 RMSDP=1.51D-06 MaxDP=4.06D-05 DE=-7.42D-08 OVMax= 6.83D-05

 Cycle   9  Pass 1  IDiag  1:
 E= -230.750364453065     Delta-E=       -0.000000003655 Rises=F Damp=F
 DIIS: error= 3.53D-07 at cycle   9 NSaved=   9.
 NSaved= 9 IEnMin= 9 EnMin= -230.750364453065     IErMin= 9 ErrMin= 3.53D-07
 ErrMax= 3.53D-07 EMaxC= 1.00D-01 BMatC= 5.66D-12 BMatP= 4.40D-10
 IDIUse=1 WtCom= 1.00D+00 WtEn= 0.00D+00
 Coeff-Com: -0.114D-04 0.170D-04 0.185D-03 0.551D-03-0.566D-02 0.412D-01
 Coeff-Com: -0.821D-01 0.819D-01 0.964D+00
 Coeff:     -0.114D-04 0.170D-04 0.185D-03 0.551D-03-0.566D-02 0.412D-01
 Coeff:     -0.821D-01 0.819D-01 0.964D+00
 Gap=     0.379 Goal=   None    Shift=    0.000
 RMSDP=7.05D-08 MaxDP=2.04D-06 DE=-3.66D-09 OVMax= 2.35D-06

 Cycle  10  Pass 1  IDiag  1:
 E= -230.750364453073     Delta-E=       -0.000000000008 Rises=F Damp=F
 DIIS: error= 1.53D-07 at cycle  10 NSaved=  10.
 NSaved=10 IEnMin=10 EnMin= -230.750364453073     IErMin=10 ErrMin= 1.53D-07
 ErrMax= 1.53D-07 EMaxC= 1.00D-01 BMatC= 1.24D-12 BMatP= 5.66D-12
 IDIUse=1 WtCom= 1.00D+00 WtEn= 0.00D+00
 Coeff-Com:  0.539D-05-0.733D-05-0.116D-03-0.316D-03 0.325D-02-0.278D-01
 Coeff-Com:  0.705D-01-0.142D+00 0.288D+00 0.808D+00
 Coeff:      0.539D-05-0.733D-05-0.116D-03-0.316D-03 0.325D-02-0.278D-01
 Coeff:      0.705D-01-0.142D+00 0.288D+00 0.808D+00
 Gap=     0.379 Goal=   None    Shift=    0.000
 RMSDP=2.68D-08 MaxDP=7.36D-07 DE=-7.90D-12 OVMax= 6.35D-07

 Cycle  11  Pass 1  IDiag  1:
 E= -230.750364453077     Delta-E=       -0.000000000004 Rises=F Damp=F
 DIIS: error= 2.39D-08 at cycle  11 NSaved=  11.
 NSaved=11 IEnMin=11 EnMin= -230.750364453077     IErMin=11 ErrMin= 2.39D-08
 ErrMax= 2.39D-08 EMaxC= 1.00D-01 BMatC= 3.12D-14 BMatP= 1.24D-12
 IDIUse=1 WtCom= 1.00D+00 WtEn= 0.00D+00
 Coeff-Com:  0.977D-06-0.143D-05-0.171D-04-0.506D-04 0.516D-03-0.401D-02
 Coeff-Com:  0.895D-02-0.147D-01-0.203D-01 0.538D-01 0.976D+00
 Coeff:      0.977D-06-0.143D-05-0.171D-04-0.506D-04 0.516D-03-0.401D-02
 Coeff:      0.895D-02-0.147D-01-0.203D-01 0.538D-01 0.976D+00
 Gap=     0.379 Goal=   None    Shift=    0.000
 RMSDP=1.67D-08 MaxDP=4.58D-07 DE=-3.81D-12 OVMax= 1.44D-07

 Cycle  12  Pass 1  IDiag  1:
 E= -230.750364453080     Delta-E=       -0.000000000003 Rises=F Damp=F
 DIIS: error= 7.99D-09 at cycle  12 NSaved=  12.
 NSaved=12 IEnMin=12 EnMin= -230.750364453080     IErMin=12 ErrMin= 7.99D-09
 ErrMax= 7.99D-09 EMaxC= 1.00D-01 BMatC= 5.03D-15 BMatP= 3.12D-14
 IDIUse=1 WtCom= 1.00D+00 WtEn= 0.00D+00
 Coeff-Com: -0.282D-06 0.339D-06 0.789D-05 0.195D-04-0.206D-03 0.191D-02
 Coeff-Com: -0.516D-02 0.114D-01-0.359D-01-0.739D-01 0.229D+00 0.873D+00
 Coeff:     -0.282D-06 0.339D-06 0.789D-05 0.195D-04-0.206D-03 0.191D-02
 Coeff:     -0.516D-02 0.114D-01-0.359D-01-0.739D-01 0.229D+00 0.873D+00
 Gap=     0.379 Goal=   None    Shift=    0.000
 RMSDP=7.61D-09 MaxDP=2.07D-07 DE=-2.90D-12 OVMax= 3.34D-08

 SCF Done:  E(RHF) =  -230.750364453     A.U. after   12 cycles
             Convg  =    0.7612D-08             -V/T =  2.0013
 KE= 2.304527812826D+02 PE=-9.437144407924D+02 EE= 2.790429965739D+02
 Leave Link  502 at Fri Dec  3 11:48:56 2021, MaxMem=  498073600 cpu:      53.1
 (Enter /apps/software//g09/l801.exe)
 ExpMin= 3.60D-02 ExpMax= 4.56D+03 ExpMxC= 6.82D+02 IAcc=3 IRadAn=         5 AccDes= 0.00D+00
 HarFok:  IExCor=  205 AccDes= 0.00D+00 IRadAn=         5 IDoV=-2
 ScaDFX=  1.000000  1.000000  1.000000  1.000000
 Largest valence mixing into a core orbital is  1.52D-04
 Largest core mixing into a valence orbital is  3.99D-05
 Range of M.O.s used for correlation:     7   174
 NBasis=   174 NAE=    21 NBE=    21 NFC=     6 NFV=     0
 NROrb=    168 NOA=    15 NOB=    15 NVA=   153 NVB=   153

 **** Warning!!: The largest alpha MO coefficient is  0.23444314D+03

 Leave Link  801 at Fri Dec  3 11:48:57 2021, MaxMem=  498073600 cpu:       1.2
 (Enter /apps/software//g09/l906.exe)
 Frozen-core derivative calculation, NFC=   6 NFV=   0.
 FulOut=F Deriv=T AODrv=F NAtomX=    12
   MMem=         328  MDisk=          15 MDiskD=          15
  W3Min=      657720 MinDsk=     1009670 NBas6D=         180
 NBas2D=       16542    NTT=       16290    LW2=     2040000
    MDV=   497687916 MDiskM=       38247 NBas2p=        8392
 Fully in-core method, ICMem=   280919484.
 IMap=   1   2   3   4   5   6   7   8   9  10  11  12  13  14  15  16  17  18  19  20
 IMap=  21
 JobTyp=1 Pass  1 fully in-core, NPsUse=  6.
 Compute canonical integrals, IntTyp=   4.
 Symmetry not used in FoFDir.
 MinBra= 0 MaxBra= 2 Meth= 1.
 IRaf=       0 NMat=   1 IRICut=       1 DoRegI=T DoRafI=F ISym2E= 0 JSym2E=0.
 Spin components of T(2) and E(2):
     alpha-alpha T2 =       0.4239713244D-01 E2=     -0.1078408084D+00
     alpha-beta  T2 =       0.2229593239D+00 E2=     -0.6130197996D+00
     beta-beta   T2 =       0.4239713244D-01 E2=     -0.1078408084D+00
 The integrals were generated   1 times.
 ANorm=    0.1143570544D+01
 E2 =    -0.8287014164D+00 EUMP2 =    -0.23157906586951D+03
 Leave Link  906 at Fri Dec  3 11:49:43 2021, MaxMem=  498073600 cpu:     279.7
 (Enter /apps/software//g09/l1002.exe)
 Minotr:  Closed shell wavefunction.
          Computing MP2/KS-MP2 derivatives.
          Using Z-Vector for PSCF gradient.
          Skipping F1 and S1 gradient terms here.
          Frozen-core window.
          Direct CPHF calculation.
          Differentiating once with respect to electric field.
                with respect to dipole field.
          Electric field/nuclear overlap derivatives assumed to be zero.
          Using symmetry in CPHF.
          Requested convergence is 1.0D-10 RMS, and 1.0D-09 maximum.
          NewPWx=F KeepS1=T KeepF1=T KeepIn=T MapXYZ=F SortEE=F KeepMc=T.
          MDV=     498073500 using IRadAn=       0.
          Keep R1 ints in memory in canonical form, NReq=133512102.
 Symmetry not used in FoFDir.
 MinBra= 0 MaxBra= 2 Meth= 1.
 IRaf=       0 NMat=   1 IRICut=       1 DoRegI=T DoRafI=F ISym2E= 0 JSym2E=0.
          Solving linear equations separately, MaxMat=       0.
          There are     1 degrees of freedom in the 1st order CPHF.  IDoFFX=0.
 LinEq1:  Iter=  0 NonCon=     1 RMS=3.41D-03 Max=7.25D-02
 AX will form     1 AO Fock derivatives at one time.
 LinEq1:  Iter=  1 NonCon=     1 RMS=8.43D-04 Max=1.27D-02
 LinEq1:  Iter=  2 NonCon=     1 RMS=2.46D-04 Max=5.47D-03
 LinEq1:  Iter=  3 NonCon=     1 RMS=6.17D-05 Max=1.26D-03
 LinEq1:  Iter=  4 NonCon=     1 RMS=1.71D-05 Max=4.15D-04
 LinEq1:  Iter=  5 NonCon=     1 RMS=2.79D-06 Max=5.07D-05
 LinEq1:  Iter=  6 NonCon=     1 RMS=2.59D-07 Max=3.25D-06
 LinEq1:  Iter=  7 NonCon=     1 RMS=2.46D-08 Max=4.63D-07
 LinEq1:  Iter=  8 NonCon=     1 RMS=3.19D-09 Max=4.13D-08
 LinEq1:  Iter=  9 NonCon=     1 RMS=1.16D-09 Max=2.03D-08
 LinEq1:  Iter= 10 NonCon=     1 RMS=2.91D-10 Max=4.04D-09
 LinEq1:  Iter= 11 NonCon=     1 RMS=8.00D-11 Max=1.20D-09
 LinEq1:  Iter= 12 NonCon=     0 RMS=2.27D-11 Max=2.20D-10
 Linear equations converged to 1.000D-10 1.000D-09 after    12 iterations.
 End of Minotr Frequency-dependent properties file   721 does not exist.
 End of Minotr Frequency-dependent properties file   722 does not exist.
 Leave Link 1002 at Fri Dec  3 11:49:53 2021, MaxMem=  498073600 cpu:      56.5
 (Enter /apps/software//g09/l601.exe)
 Copying SCF densities to generalized density rwf, IOpCl= 0 IROHF=0.

 **********************************************************************

            Population analysis using the MP2 density.

 **********************************************************************

 Orbital symmetries:
       Occupied  (A1) (B2) (A1) (A1) (B2) (B2) (A1) (B2) (A1) (A1)
                 (B2) (A1) (B2) (A1) (B2) (A1) (B1) (A1) (B2) (A2)
                 (B1)
       Virtual   (A1) (B2) (A1) (A1) (B2) (B2) (B1) (A2) (B1) (A2)
                 (B1) (A1) (A1) (B2) (A1) (B2) (A1) (A1) (A2) (A1)
                 (B2) (B1) (A2) (B2) (B2) (A1) (A1) (B2) (A1) (B2)
                 (B2) (B2) (A1) (A2) (B2) (A1) (A1) (B2) (B2) (A1)
                 (B2) (A1) (B2) (A1) (A1) (B1) (B2) (A1) (B2) (A1)
                 (B2) (B2) (B1) (A2) (A1) (B1) (A2) (A2) (A1) (B2)
                 (B2) (A1) (A1) (B2) (A1) (B2) (B2) (A1) (B2) (A1)
                 (B2) (B2) (B1) (A1) (B2) (B1) (A2) (B1) (B1) (A2)
                 (B2) (A1) (A1) (B2) (A1) (A1) (A2) (A2) (B1) (B2)
                 (A1) (A1) (B2) (B1) (A2) (B1) (A1) (B2) (A1) (B2)
                 (B1) (A2) (B2) (A1) (B2) (A1) (B2) (A2) (B1) (A2)
                 (A2) (B2) (A1) (A1) (A1) (B2) (A1) (B2) (B2) (A1)
                 (B2) (A1) (B1) (A1) (B2) (B2) (B1) (A2) (B2) (A2)
                 (B1) (B2) (A1) (A2) (A1) (B2) (A1) (B2) (A1) (A1)
                 (B2) (B2) (A1) (B2) (A1) (B2) (B2) (A1) (A1) (B2)
                 (A1) (B2) (B2)
 The electronic state is 1-A1.
 Alpha  occ. eigenvalues --  -11.23953 -11.23896 -11.23896 -11.23773 -11.23773
 Alpha  occ. eigenvalues --  -11.23713  -1.15214  -1.01677  -1.01677  -0.82579
 Alpha  occ. eigenvalues --   -0.82579  -0.71255  -0.64368  -0.61956  -0.58960
 Alpha  occ. eigenvalues --   -0.58959  -0.50193  -0.49456  -0.49455  -0.33725
 Alpha  occ. eigenvalues --   -0.33725
 Alpha virt. eigenvalues --    0.04209   0.04894   0.04894   0.06631   0.06631
 Alpha virt. eigenvalues --    0.08814   0.10889   0.10889   0.12931   0.15260
 Alpha virt. eigenvalues --    0.15260   0.15775   0.16261   0.17962   0.17962
 Alpha virt. eigenvalues --    0.18452   0.18452   0.19234   0.20922   0.21245
 Alpha virt. eigenvalues --    0.21245   0.21607   0.21607   0.21736   0.22803
 Alpha virt. eigenvalues --    0.22803   0.25036   0.25036   0.28880   0.28880
 Alpha virt. eigenvalues --    0.30276   0.33339   0.33378   0.36809   0.40298
 Alpha virt. eigenvalues --    0.40298   0.43260   0.43260   0.43999   0.49555
 Alpha virt. eigenvalues --    0.49555   0.51148   0.51149   0.59876   0.61758
 Alpha virt. eigenvalues --    0.71525   0.71995   0.72284   0.72284   0.75093
 Alpha virt. eigenvalues --    0.75093   0.75545   0.75763   0.75763   0.79649
 Alpha virt. eigenvalues --    0.81937   0.81937   0.88576   0.93485   0.93486
 Alpha virt. eigenvalues --    0.95206   0.95206   0.97441   1.01569   1.01770
 Alpha virt. eigenvalues --    1.01770   1.05862   1.05862   1.10122   1.12162
 Alpha virt. eigenvalues --    1.12162   1.13212   1.16862   1.21724   1.21725
 Alpha virt. eigenvalues --    1.24849   1.32206   1.32207   1.39243   1.39244
 Alpha virt. eigenvalues --    1.52469   1.55862   1.70143   1.76901   1.76903
 Alpha virt. eigenvalues --    1.78757   1.82244   1.84017   1.84018   1.87847
 Alpha virt. eigenvalues --    1.87848   1.96216   1.96217   1.99060   2.05406
 Alpha virt. eigenvalues --    2.05406   2.12181   2.12182   2.14124   2.21723
 Alpha virt. eigenvalues --    2.22937   2.22939   2.24346   2.24347   2.29742
 Alpha virt. eigenvalues --    2.34964   2.34965   2.38590   2.38591   2.59869
 Alpha virt. eigenvalues --    2.70024   2.72222   2.72223   2.74286   2.81781
 Alpha virt. eigenvalues --    2.81782   2.96161   2.96163   2.96380   2.96956
 Alpha virt. eigenvalues --    3.01026   3.01027   3.05727   3.06313   3.06314
 Alpha virt. eigenvalues --    3.09983   3.19093   3.19094   3.28348   3.29331
 Alpha virt. eigenvalues --    3.29331   3.32649   3.32650   3.47988   3.54450
 Alpha virt. eigenvalues --    3.76755   3.76756   3.90793   3.90794   3.90986
 Alpha virt. eigenvalues --    4.07019   4.40402   4.40403   4.50076   4.57056
 Alpha virt. eigenvalues --    4.57058   5.27344  24.74147  25.12722  25.12725
 Alpha virt. eigenvalues --   25.26780  25.26781  25.37299
          Condensed to atoms (all electrons):
              1          2          3          4          5          6
     1  C    8.354520  -2.502506   1.964589  -1.715572   1.964688  -2.165973
     2  C   -2.502506   8.354431  -2.165883   1.964589  -1.715563   1.964615
     3  C    1.964589  -2.165883   8.354431  -2.502506   1.964615  -1.715563
     4  C   -1.715572   1.964589  -2.502506   8.354520  -2.165973   1.964688
     5  C    1.964688  -1.715563   1.964615  -2.165973   8.354456  -2.502556
     6  C   -2.165973   1.964615  -1.715563   1.964688  -2.502556   8.354456
     7  H    0.493550  -0.140781   0.035090  -0.008995   0.047224  -0.147660
     8  H   -0.140782   0.493550  -0.147663   0.047221  -0.008992   0.035085
     9  H    0.047221  -0.147663   0.493550  -0.140782   0.035085  -0.008992
    10  H   -0.008995   0.035090  -0.140781   0.493550  -0.147660   0.047224
    11  H    0.035099  -0.008999   0.047232  -0.147688   0.493563  -0.140791
    12  H   -0.147688   0.047232  -0.008999   0.035099  -0.140791   0.493563
              7          8          9         10         11         12
     1  C    0.493550  -0.140782   0.047221  -0.008995   0.035099  -0.147688
     2  C   -0.140781   0.493550  -0.147663   0.035090  -0.008999   0.047232
     3  C    0.035090  -0.147663   0.493550  -0.140781   0.047232  -0.008999
     4  C   -0.008995   0.047221  -0.140782   0.493550  -0.147688   0.035099
     5  C    0.047224  -0.008992   0.035085  -0.147660   0.493563  -0.140791
     6  C   -0.147660   0.035085  -0.008992   0.047224  -0.140791   0.493563
     7  H    0.566222  -0.009141  -0.000541   0.000981  -0.000541  -0.013527
     8  H   -0.009141   0.566235  -0.013529  -0.000541   0.000982  -0.000541
     9  H   -0.000541  -0.013529   0.566235  -0.009141  -0.000541   0.000982
    10  H    0.000981  -0.000541  -0.009141   0.566222  -0.013527  -0.000541
    11  H   -0.000541   0.000982  -0.000541  -0.013527   0.566235  -0.009142
    12  H   -0.013527  -0.000541   0.000982  -0.000541  -0.009142   0.566235
 Mulliken atomic charges:
              1
     1  C   -0.178151
     2  C   -0.178110
     3  C   -0.178110
     4  C   -0.178151
     5  C   -0.178097
     6  C   -0.178097
     7  H    0.178121
     8  H    0.178117
     9  H    0.178117
    10  H    0.178121
    11  H    0.178119
    12  H    0.178119
 Sum of Mulliken atomic charges =   0.00000
 Mulliken charges with hydrogens summed into heavy atoms:
              1
     1  C   -0.000029
     2  C    0.000007
     3  C    0.000007
     4  C   -0.000029
     5  C    0.000022
     6  C    0.000022
 Sum of Mulliken charges with hydrogens summed into heavy atoms =   0.00000
 Electronic spatial extent (au):  <R**2>=            460.6156
 Charge=              0.0000 electrons
 Dipole moment (field-independent basis, Debye):
    X=              0.0000    Y=              0.0000    Z=              0.0000  Tot=              0.0000
 Quadrupole moment (field-independent basis, Debye-Ang):
   XX=            -40.8211   YY=            -32.5979   ZZ=            -32.5985
   XY=              0.0000   XZ=              0.0000   YZ=              0.0000
 Traceless Quadrupole moment (field-independent basis, Debye-Ang):
   XX=             -5.4820   YY=              2.7413   ZZ=              2.7407
   XY=              0.0000   XZ=              0.0000   YZ=              0.0000
 Octapole moment (field-independent basis, Debye-Ang**2):
  XXX=              0.0000  YYY=              0.0000  ZZZ=              2.4448  XYY=              0.0000
  XXY=              0.0000  XXZ=              0.0001  XZZ=              0.0000  YZZ=              0.0000
  YYZ=             -2.4450  XYZ=              0.0000
 Hexadecapole moment (field-independent basis, Debye-Ang**3):
 XXXX=            -51.3406 YYYY=           -280.3384 ZZZZ=           -280.3349 XXXY=              0.0000
 XXXZ=              0.0000 YYYX=              0.0000 YYYZ=              0.0000 ZZZX=              0.0000
 ZZZY=              0.0000 XXYY=            -66.2369 XXZZ=            -66.2354 YYZZ=            -93.4465
 XXYZ=              0.0000 YYXZ=              0.0000 ZZXY=              0.0000
 N-N= 2.034682984829D+02 E-N=-9.445685180354D+02  KE= 2.314737818839D+02
 Symmetry A1   KE= 1.149803453907D+02
 Symmetry A2   KE= 2.330660445012D+00
 Symmetry B1   KE= 4.064497312290D+00
 Symmetry B2   KE= 1.100982787359D+02
 No NMR shielding tensors so no spin-rotation constants.
 Leave Link  601 at Fri Dec  3 11:49:53 2021, MaxMem=  498073600 cpu:       2.0
 (Enter /apps/software//g09/l9999.exe)
 1\1\GINC-DLT06\SP\RMP2-FC\6-311++G(d,p)\C6H6\ITAMAR\03-Dec-2021\0\\#P 
 MP2/6-311++G** DENSITY=MP2\\Clamp-5\\0,1\C,0,0.004577,1.39537,0.\C,0,1
 .206111,0.701622,0.\C,0,1.206111,-0.701622,0.\C,0,0.004577,-1.39537,0.
 \C,0,-1.210663,-0.693714,0.\C,0,-1.210663,0.693714,0.\H,0,-0.089959,2.
 475661,0.\H,0,2.188927,1.159918,0.\H,0,2.188927,-1.159918,0.\H,0,-0.08
 9959,-2.475661,0.\H,0,-2.098994,-1.315698,0.\H,0,-2.098994,1.315698,0.
 \\Version=EM64L-G09RevA.02\State=1-A1\HF=-230.7503645\MP2=-231.5790659
 \RMSD=7.612e-09\Dipole=-0.0000067,0.,0.\Quadrupole=2.0376353,2.0380785
 ,-4.0757138,0.,0.,0.\PG=C02V [SGV(C6H6)]\\@


 I HAVE NOT FAILED, I HAVE ONLY DISCOVERED 10,000
 WAYS THAT DIDN'T WORK.  -- THOMAS A. EDISON
 Job cpu time:  0 days  0 hours  6 minutes 38.3 seconds.
 File lengths (MBytes):  RWF=     14 Int=      0 D2E=      0 Chk=      4 Scr=      1
 Normal termination of Gaussian 09 at Fri Dec  3 11:49:53 2021.
