X=CN                                                                    
SP        RMP2-FC                                                     6-311++G(d,p)       
Number of atoms                            I               13
Info1-9                                    I   N=           9
          25          22           0           0           0         110
           1           2           1
Charge                                     I                0
Multiplicity                               I                1
Number of electrons                        I               54
Number of alpha electrons                  I               27
Number of beta electrons                   I               27
Number of basis functions                  I              211
Number of independent functions            I              211
Number of point charges in /Mol/           I                0
Number of translation vectors              I                0
Atomic numbers                             I   N=          13
           6           6           6           6           6           6
           6           1           1           1           1           1
           7
Nuclear charges                            R   N=          13
  6.00000000E+00  6.00000000E+00  6.00000000E+00  6.00000000E+00  6.00000000E+00
  6.00000000E+00  6.00000000E+00  1.00000000E+00  1.00000000E+00  1.00000000E+00
  1.00000000E+00  1.00000000E+00  7.00000000E+00
Current cartesian coordinates              R   N=          39
  2.28485653E+00 -2.79771497E+00  0.00000000E+00  2.29631394E+00 -1.70305899E-01
  0.00000000E+00  1.46977475E-16  1.15338301E+00  0.00000000E+00 -2.29578293E+00
 -1.71332020E-01  0.00000000E+00 -2.28315011E+00 -2.79869952E+00  0.00000000E+00
  1.15840212E-03 -4.11327428E+00  0.00000000E+00 -8.50376760E-04  3.85979397E+00
  0.00000000E+00 -4.06058682E+00  8.64583721E-01  0.00000000E+00 -4.05747822E+00
 -3.82072766E+00  0.00000000E+00  1.57603159E-03 -6.16140859E+00  0.00000000E+00
  4.05965897E+00 -3.81891731E+00  0.00000000E+00  4.06069832E+00  8.66331718E-01
  0.00000000E+00 -2.73254399E-03  6.04271867E+00  0.00000000E+00
Force Field                                I                0
Int Atom Types                             I   N=          13
           0           0           0           0           0           0
           0           0           0           0           0           0
           0
MM charges                                 R   N=          13
  0.00000000E+00  0.00000000E+00  0.00000000E+00  0.00000000E+00  0.00000000E+00
  0.00000000E+00  0.00000000E+00  0.00000000E+00  0.00000000E+00  0.00000000E+00
  0.00000000E+00  0.00000000E+00  0.00000000E+00
Integer atomic weights                     I   N=          13
          12          12          12          12          12          12
          12           1           1           1           1           1
          14
Real atomic weights                        R   N=          13
  1.20000000E+01  1.20000000E+01  1.20000000E+01  1.20000000E+01  1.20000000E+01
  1.20000000E+01  1.20000000E+01  1.00782504E+00  1.00782504E+00  1.00782504E+00
  1.00782504E+00  1.00782504E+00  1.40030740E+01
Atom fragment info                         I   N=          13
           0           0           0           0           0           0
           0           0           0           0           0           0
           0
Atom residue num                           I   N=          13
           0           0           0           0           0           0
           0           0           0           0           0           0
           0
Nuclear spins                              I   N=          13
           0           0           0           0           0           0
           0           1           1           1           1           1
           2
Nuclear ZEff                               R   N=          13
 -3.60000000E+00 -3.60000000E+00 -3.60000000E+00 -3.60000000E+00 -3.60000000E+00
 -3.60000000E+00 -3.60000000E+00 -1.00000000E+00 -1.00000000E+00 -1.00000000E+00
 -1.00000000E+00 -1.00000000E+00 -4.55000000E+00
Nuclear QMom                               R   N=          13
  0.00000000E+00  0.00000000E+00  0.00000000E+00  0.00000000E+00  0.00000000E+00
  0.00000000E+00  0.00000000E+00  0.00000000E+00  0.00000000E+00  0.00000000E+00
  0.00000000E+00  0.00000000E+00  2.04400000E+00
Nuclear GFac                               R   N=          13
  0.00000000E+00  0.00000000E+00  0.00000000E+00  0.00000000E+00  0.00000000E+00
  0.00000000E+00  0.00000000E+00  2.79284600E+00  2.79284600E+00  2.79284600E+00
  2.79284600E+00  2.79284600E+00  4.03761000E-01
MicOpt                                     I   N=          13
          -1          -1          -1          -1          -1          -1
          -1          -1          -1          -1          -1          -1
          -1
Number of contracted shells                I               73
Number of primitive shells                 I              139
Pure/Cartesian d shells                    I                0
Pure/Cartesian f shells                    I                0
Highest angular momentum                   I                2
Largest degree of contraction              I                6
Shell types                                I   N=          73
           0          -1          -1          -1          -1          -2
           0          -1          -1          -1          -1          -2
           0          -1          -1          -1          -1          -2
           0          -1          -1          -1          -1          -2
           0          -1          -1          -1          -1          -2
           0          -1          -1          -1          -1          -2
           0          -1          -1          -1          -1          -2
           0           0           0           0           1           0
           0           0           0           1           0           0
           0           0           1           0           0           0
           0           1           0           0           0           0
           1           0          -1          -1          -1          -1
          -2
Number of primitives per shell             I   N=          73
           6           3           1           1           1           1
           6           3           1           1           1           1
           6           3           1           1           1           1
           6           3           1           1           1           1
           6           3           1           1           1           1
           6           3           1           1           1           1
           6           3           1           1           1           1
           3           1           1           1           1           3
           1           1           1           1           3           1
           1           1           1           3           1           1
           1           1           3           1           1           1
           1           6           3           1           1           1
           1
Shell to atom map                          I   N=          73
           1           1           1           1           1           1
           2           2           2           2           2           2
           3           3           3           3           3           3
           4           4           4           4           4           4
           5           5           5           5           5           5
           6           6           6           6           6           6
           7           7           7           7           7           7
           8           8           8           8           8           9
           9           9           9           9          10          10
          10          10          10          11          11          11
          11          11          12          12          12          12
          12          13          13          13          13          13
          13
Primitive exponents                        R   N=         139
  4.56324000E+03  6.82024000E+02  1.54973000E+02  4.44553000E+01  1.30290000E+01
  1.82773000E+00  2.09642000E+01  4.80331000E+00  1.45933000E+00  4.83456000E-01
  1.45585000E-01  4.38000000E-02  6.26000000E-01  4.56324000E+03  6.82024000E+02
  1.54973000E+02  4.44553000E+01  1.30290000E+01  1.82773000E+00  2.09642000E+01
  4.80331000E+00  1.45933000E+00  4.83456000E-01  1.45585000E-01  4.38000000E-02
  6.26000000E-01  4.56324000E+03  6.82024000E+02  1.54973000E+02  4.44553000E+01
  1.30290000E+01  1.82773000E+00  2.09642000E+01  4.80331000E+00  1.45933000E+00
  4.83456000E-01  1.45585000E-01  4.38000000E-02  6.26000000E-01  4.56324000E+03
  6.82024000E+02  1.54973000E+02  4.44553000E+01  1.30290000E+01  1.82773000E+00
  2.09642000E+01  4.80331000E+00  1.45933000E+00  4.83456000E-01  1.45585000E-01
  4.38000000E-02  6.26000000E-01  4.56324000E+03  6.82024000E+02  1.54973000E+02
  4.44553000E+01  1.30290000E+01  1.82773000E+00  2.09642000E+01  4.80331000E+00
  1.45933000E+00  4.83456000E-01  1.45585000E-01  4.38000000E-02  6.26000000E-01
  4.56324000E+03  6.82024000E+02  1.54973000E+02  4.44553000E+01  1.30290000E+01
  1.82773000E+00  2.09642000E+01  4.80331000E+00  1.45933000E+00  4.83456000E-01
  1.45585000E-01  4.38000000E-02  6.26000000E-01  4.56324000E+03  6.82024000E+02
  1.54973000E+02  4.44553000E+01  1.30290000E+01  1.82773000E+00  2.09642000E+01
  4.80331000E+00  1.45933000E+00  4.83456000E-01  1.45585000E-01  4.38000000E-02
  6.26000000E-01  3.38650000E+01  5.09479000E+00  1.15879000E+00  3.25840000E-01
  1.02741000E-01  3.60000000E-02  7.50000000E-01  3.38650000E+01  5.09479000E+00
  1.15879000E+00  3.25840000E-01  1.02741000E-01  3.60000000E-02  7.50000000E-01
  3.38650000E+01  5.09479000E+00  1.15879000E+00  3.25840000E-01  1.02741000E-01
  3.60000000E-02  7.50000000E-01  3.38650000E+01  5.09479000E+00  1.15879000E+00
  3.25840000E-01  1.02741000E-01  3.60000000E-02  7.50000000E-01  3.38650000E+01
  5.09479000E+00  1.15879000E+00  3.25840000E-01  1.02741000E-01  3.60000000E-02
  7.50000000E-01  6.29348000E+03  9.49044000E+02  2.18776000E+02  6.36916000E+01
  1.88282000E+01  2.72023000E+00  3.06331000E+01  7.02614000E+00  2.11205000E+00
  6.84009000E-01  2.00878000E-01  6.39000000E-02  9.13000000E-01
Contraction coefficients                   R   N=         139
  1.96665025E-03  1.52306019E-02  7.61269097E-02  2.60801033E-01  6.16462078E-01
  2.21006028E-01  1.14660081E-01  9.19999648E-01 -3.03068213E-03  1.00000000E+00
  1.00000000E+00  1.00000000E+00  1.00000000E+00  1.96665025E-03  1.52306019E-02
  7.61269097E-02  2.60801033E-01  6.16462078E-01  2.21006028E-01  1.14660081E-01
  9.19999648E-01 -3.03068213E-03  1.00000000E+00  1.00000000E+00  1.00000000E+00
  1.00000000E+00  1.96665025E-03  1.52306019E-02  7.61269097E-02  2.60801033E-01
  6.16462078E-01  2.21006028E-01  1.14660081E-01  9.19999648E-01 -3.03068213E-03
  1.00000000E+00  1.00000000E+00  1.00000000E+00  1.00000000E+00  1.96665025E-03
  1.52306019E-02  7.61269097E-02  2.60801033E-01  6.16462078E-01  2.21006028E-01
  1.14660081E-01  9.19999648E-01 -3.03068213E-03  1.00000000E+00  1.00000000E+00
  1.00000000E+00  1.00000000E+00  1.96665025E-03  1.52306019E-02  7.61269097E-02
  2.60801033E-01  6.16462078E-01  2.21006028E-01  1.14660081E-01  9.19999648E-01
 -3.03068213E-03  1.00000000E+00  1.00000000E+00  1.00000000E+00  1.00000000E+00
  1.96665025E-03  1.52306019E-02  7.61269097E-02  2.60801033E-01  6.16462078E-01
  2.21006028E-01  1.14660081E-01  9.19999648E-01 -3.03068213E-03  1.00000000E+00
  1.00000000E+00  1.00000000E+00  1.00000000E+00  1.96665025E-03  1.52306019E-02
  7.61269097E-02  2.60801033E-01  6.16462078E-01  2.21006028E-01  1.14660081E-01
  9.19999648E-01 -3.03068213E-03  1.00000000E+00  1.00000000E+00  1.00000000E+00
  1.00000000E+00  2.54938145E-02  1.90373109E-01  8.52161486E-01  1.00000000E+00
  1.00000000E+00  1.00000000E+00  1.00000000E+00  2.54938145E-02  1.90373109E-01
  8.52161486E-01  1.00000000E+00  1.00000000E+00  1.00000000E+00  1.00000000E+00
  2.54938145E-02  1.90373109E-01  8.52161486E-01  1.00000000E+00  1.00000000E+00
  1.00000000E+00  1.00000000E+00  2.54938145E-02  1.90373109E-01  8.52161486E-01
  1.00000000E+00  1.00000000E+00  1.00000000E+00  1.00000000E+00  2.54938145E-02
  1.90373109E-01  8.52161486E-01  1.00000000E+00  1.00000000E+00  1.00000000E+00
  1.00000000E+00  1.96978815E-03  1.49612859E-02  7.35005308E-02  2.48936766E-01
  6.02459433E-01  2.56201759E-01  1.11906080E-01  9.21666655E-01 -2.56919183E-03
  1.00000000E+00  1.00000000E+00  1.00000000E+00  1.00000000E+00
P(S=P) Contraction coefficients            R   N=         139
  0.00000000E+00  0.00000000E+00  0.00000000E+00  0.00000000E+00  0.00000000E+00
  0.00000000E+00  4.02486927E-02  2.37593957E-01  8.15853851E-01  1.00000000E+00
  1.00000000E+00  1.00000000E+00  0.00000000E+00  0.00000000E+00  0.00000000E+00
  0.00000000E+00  0.00000000E+00  0.00000000E+00  0.00000000E+00  4.02486927E-02
  2.37593957E-01  8.15853851E-01  1.00000000E+00  1.00000000E+00  1.00000000E+00
  0.00000000E+00  0.00000000E+00  0.00000000E+00  0.00000000E+00  0.00000000E+00
  0.00000000E+00  0.00000000E+00  4.02486927E-02  2.37593957E-01  8.15853851E-01
  1.00000000E+00  1.00000000E+00  1.00000000E+00  0.00000000E+00  0.00000000E+00
  0.00000000E+00  0.00000000E+00  0.00000000E+00  0.00000000E+00  0.00000000E+00
  4.02486927E-02  2.37593957E-01  8.15853851E-01  1.00000000E+00  1.00000000E+00
  1.00000000E+00  0.00000000E+00  0.00000000E+00  0.00000000E+00  0.00000000E+00
  0.00000000E+00  0.00000000E+00  0.00000000E+00  4.02486927E-02  2.37593957E-01
  8.15853851E-01  1.00000000E+00  1.00000000E+00  1.00000000E+00  0.00000000E+00
  0.00000000E+00  0.00000000E+00  0.00000000E+00  0.00000000E+00  0.00000000E+00
  0.00000000E+00  4.02486927E-02  2.37593957E-01  8.15853851E-01  1.00000000E+00
  1.00000000E+00  1.00000000E+00  0.00000000E+00  0.00000000E+00  0.00000000E+00
  0.00000000E+00  0.00000000E+00  0.00000000E+00  0.00000000E+00  4.02486927E-02
  2.37593957E-01  8.15853851E-01  1.00000000E+00  1.00000000E+00  1.00000000E+00
  0.00000000E+00  0.00000000E+00  0.00000000E+00  0.00000000E+00  0.00000000E+00
  0.00000000E+00  0.00000000E+00  0.00000000E+00  0.00000000E+00  0.00000000E+00
  0.00000000E+00  0.00000000E+00  0.00000000E+00  0.00000000E+00  0.00000000E+00
  0.00000000E+00  0.00000000E+00  0.00000000E+00  0.00000000E+00  0.00000000E+00
  0.00000000E+00  0.00000000E+00  0.00000000E+00  0.00000000E+00  0.00000000E+00
  0.00000000E+00  0.00000000E+00  0.00000000E+00  0.00000000E+00  0.00000000E+00
  0.00000000E+00  0.00000000E+00  0.00000000E+00  0.00000000E+00  0.00000000E+00
  0.00000000E+00  0.00000000E+00  0.00000000E+00  0.00000000E+00  0.00000000E+00
  0.00000000E+00  0.00000000E+00  3.83119186E-02  2.37403116E-01  8.17592398E-01
  1.00000000E+00  1.00000000E+00  1.00000000E+00  0.00000000E+00
Coordinates of each shell                  R   N=         219
  2.28485569E+00 -2.79771535E+00  0.00000000E+00  2.28485569E+00 -2.79771535E+00
  0.00000000E+00  2.28485569E+00 -2.79771535E+00  0.00000000E+00  2.28485569E+00
 -2.79771535E+00  0.00000000E+00  2.28485569E+00 -2.79771535E+00  0.00000000E+00
  2.28485569E+00 -2.79771535E+00  0.00000000E+00  2.29631366E+00 -1.70306281E-01
  0.00000000E+00  2.29631366E+00 -1.70306281E-01  0.00000000E+00  2.29631366E+00
 -1.70306281E-01  0.00000000E+00  2.29631366E+00 -1.70306281E-01  0.00000000E+00
  2.29631366E+00 -1.70306281E-01  0.00000000E+00  2.29631366E+00 -1.70306281E-01
  0.00000000E+00  0.00000000E+00  1.15338311E+00  0.00000000E+00  0.00000000E+00
  1.15338311E+00  0.00000000E+00  0.00000000E+00  1.15338311E+00  0.00000000E+00
  0.00000000E+00  1.15338311E+00  0.00000000E+00  0.00000000E+00  1.15338311E+00
  0.00000000E+00  0.00000000E+00  1.15338311E+00  0.00000000E+00 -2.29578321E+00
 -1.71331427E-01  0.00000000E+00 -2.29578321E+00 -1.71331427E-01  0.00000000E+00
 -2.29578321E+00 -1.71331427E-01  0.00000000E+00 -2.29578321E+00 -1.71331427E-01
  0.00000000E+00 -2.29578321E+00 -1.71331427E-01  0.00000000E+00 -2.29578321E+00
 -1.71331427E-01  0.00000000E+00 -2.28315095E+00 -2.79869893E+00  0.00000000E+00
 -2.28315095E+00 -2.79869893E+00  0.00000000E+00 -2.28315095E+00 -2.79869893E+00
  0.00000000E+00 -2.28315095E+00 -2.79869893E+00  0.00000000E+00 -2.28315095E+00
 -2.79869893E+00  0.00000000E+00 -2.28315095E+00 -2.79869893E+00  0.00000000E+00
  1.15728355E-03 -4.11327417E+00  0.00000000E+00  1.15728355E-03 -4.11327417E+00
  0.00000000E+00  1.15728355E-03 -4.11327417E+00  0.00000000E+00  1.15728355E-03
 -4.11327417E+00  0.00000000E+00  1.15728355E-03 -4.11327417E+00  0.00000000E+00
  1.15728355E-03 -4.11327417E+00  0.00000000E+00 -8.49801951E-04  3.85979408E+00
  0.00000000E+00 -8.49801951E-04  3.85979408E+00  0.00000000E+00 -8.49801951E-04
  3.85979408E+00  0.00000000E+00 -8.49801951E-04  3.85979408E+00  0.00000000E+00
 -8.49801951E-04  3.85979408E+00  0.00000000E+00 -8.49801951E-04  3.85979408E+00
  0.00000000E+00 -4.06058688E+00  8.64584688E-01  0.00000000E+00 -4.06058688E+00
  8.64584688E-01  0.00000000E+00 -4.06058688E+00  8.64584688E-01  0.00000000E+00
 -4.06058688E+00  8.64584688E-01  0.00000000E+00 -4.06058688E+00  8.64584688E-01
  0.00000000E+00 -4.05747928E+00 -3.82072670E+00  0.00000000E+00 -4.05747928E+00
 -3.82072670E+00  0.00000000E+00 -4.05747928E+00 -3.82072670E+00  0.00000000E+00
 -4.05747928E+00 -3.82072670E+00  0.00000000E+00 -4.05747928E+00 -3.82072670E+00
  0.00000000E+00  1.57447802E-03 -6.16140849E+00  0.00000000E+00  1.57447802E-03
 -6.16140849E+00  0.00000000E+00  1.57447802E-03 -6.16140849E+00  0.00000000E+00
  1.57447802E-03 -6.16140849E+00  0.00000000E+00  1.57447802E-03 -6.16140849E+00
  0.00000000E+00  4.05965791E+00 -3.81891806E+00  0.00000000E+00  4.05965791E+00
 -3.81891806E+00  0.00000000E+00  4.05965791E+00 -3.81891806E+00  0.00000000E+00
  4.05965791E+00 -3.81891806E+00  0.00000000E+00  4.05965791E+00 -3.81891806E+00
  0.00000000E+00  4.06069826E+00  8.66330960E-01  0.00000000E+00  4.06069826E+00
  8.66330960E-01  0.00000000E+00  4.06069826E+00  8.66330960E-01  0.00000000E+00
  4.06069826E+00  8.66330960E-01  0.00000000E+00  4.06069826E+00  8.66330960E-01
  0.00000000E+00 -2.73150555E-03  6.04271878E+00  0.00000000E+00 -2.73150555E-03
  6.04271878E+00  0.00000000E+00 -2.73150555E-03  6.04271878E+00  0.00000000E+00
 -2.73150555E-03  6.04271878E+00  0.00000000E+00 -2.73150555E-03  6.04271878E+00
  0.00000000E+00 -2.73150555E-03  6.04271878E+00  0.00000000E+00
Constraint Structure                       R   N=          39
  2.28485569E+00 -2.79771535E+00  0.00000000E+00  2.29631366E+00 -1.70306281E-01
  0.00000000E+00  0.00000000E+00  1.15338311E+00  0.00000000E+00 -2.29578321E+00
 -1.71331427E-01  0.00000000E+00 -2.28315095E+00 -2.79869893E+00  0.00000000E+00
  1.15728355E-03 -4.11327417E+00  0.00000000E+00 -8.49801951E-04  3.85979408E+00
  0.00000000E+00 -4.06058688E+00  8.64584688E-01  0.00000000E+00 -4.05747928E+00
 -3.82072670E+00  0.00000000E+00  1.57447802E-03 -6.16140849E+00  0.00000000E+00
  4.05965791E+00 -3.81891806E+00  0.00000000E+00  4.06069826E+00  8.66330960E-01
  0.00000000E+00 -2.73150555E-03  6.04271878E+00  0.00000000E+00
Num ILSW                                   I              100
ILSW                                       I   N=         100
           0           0           0           0           2           0
           0           0           0           0           0          -1
           0           0           0           0           0           0
           0           0           0           0           0           0
           1           0           0           0           0           0
           0           0      100000           0          -1           0
           0           0           0           0           0           0
           0           0           0           1           0           0
           0           0           1           0           0           0
           0           0           4          40           0           0
           0           0           0           0           0           0
           0           0           0           0           0           0
           0           0           0           0           0           0
           0           0           0           0           0           0
           0           0           0           0           0           0
           0           0           0           0           0           0
           0           0           0           0
Num RLSW                                   I               40
RLSW                                       R   N=          40
  1.00000000E+00  1.00000000E+00  1.00000000E+00  1.00000000E+00  1.00000000E+00
  0.00000000E+00  0.00000000E+00  1.00000000E+00  0.00000000E+00  0.00000000E+00
  0.00000000E+00  0.00000000E+00  1.00000000E+00  0.00000000E+00  0.00000000E+00
  0.00000000E+00  0.00000000E+00  1.00000000E+00  0.00000000E+00  0.00000000E+00
  0.00000000E+00  0.00000000E+00  1.00000000E+00  0.00000000E+00  0.00000000E+00
  0.00000000E+00  0.00000000E+00  1.00000000E+00  0.00000000E+00  0.00000000E+00
  0.00000000E+00  0.00000000E+00  0.00000000E+00  0.00000000E+00  0.00000000E+00
  0.00000000E+00  0.00000000E+00  0.00000000E+00  1.00000000E+00  1.00000000E+00
MxBond                                     I                3
NBond                                      I   N=          13
           3           3           3           3           3           3
           2           1           1           1           1           1
           1
IBond                                      I   N=          39
           2           6          11           1           3          12
           2           4           7           3           5           8
           4           6           9           1           5          10
           3          13           0           4           0           0
           5           0           0           6           0           0
           1           0           0           2           0           0
           7           0           0
RBond                                      R   N=          39
  1.50000000E+00  1.50000000E+00  1.00000000E+00  1.50000000E+00  1.50000000E+00
  1.00000000E+00  1.50000000E+00  1.50000000E+00  1.00000000E+00  1.50000000E+00
  1.50000000E+00  1.00000000E+00  1.50000000E+00  1.50000000E+00  1.00000000E+00
  1.50000000E+00  1.50000000E+00  1.00000000E+00  1.00000000E+00  3.00000000E+00
  0.00000000E+00  1.00000000E+00  0.00000000E+00  0.00000000E+00  1.00000000E+00
  0.00000000E+00  0.00000000E+00  1.00000000E+00  0.00000000E+00  0.00000000E+00
  1.00000000E+00  0.00000000E+00  0.00000000E+00  1.00000000E+00  0.00000000E+00
  0.00000000E+00  3.00000000E+00  0.00000000E+00  0.00000000E+00
Virial Ratio                               R      2.001348578954892E+00
SCF Energy                                 R     -3.225089118386636E+02
MP2 Energy                                 R     -3.236218019419621E+02
Total Energy                               R     -3.236218019419621E+02
Post-SCF wavefunction norm                 R      1.189475866863642E+00
RMS Density                                R      9.579097527406063E-09
External E-field                           R   N=          35
  0.00000000E+00  0.00000000E+00  0.00000000E+00  0.00000000E+00  0.00000000E+00
  0.00000000E+00  0.00000000E+00  0.00000000E+00  0.00000000E+00  0.00000000E+00
  0.00000000E+00  0.00000000E+00  0.00000000E+00  0.00000000E+00  0.00000000E+00
  0.00000000E+00  0.00000000E+00  0.00000000E+00  0.00000000E+00  0.00000000E+00
  0.00000000E+00  0.00000000E+00  0.00000000E+00  0.00000000E+00  0.00000000E+00
  0.00000000E+00  0.00000000E+00  0.00000000E+00  0.00000000E+00  0.00000000E+00
  0.00000000E+00  0.00000000E+00  0.00000000E+00  0.00000000E+00  0.00000000E+00
IOpCl                                      I                0
IROHF                                      I                0
Alpha Orbital Energies                     R   N=         211
 -1.55766476E+01 -1.12948047E+01 -1.12806641E+01 -1.12754712E+01 -1.12754216E+01
 -1.12703754E+01 -1.12649906E+01 -1.12648459E+01 -1.23040458E+00 -1.18568809E+00
 -1.06547590E+00 -1.05002640E+00 -8.90472730E-01 -8.61216788E-01 -7.68215150E-01
 -7.02053458E-01 -6.63600441E-01 -6.39373664E-01 -6.20976351E-01 -5.67821200E-01
 -5.54891014E-01 -5.37888590E-01 -5.32296923E-01 -4.84020005E-01 -4.70519567E-01
 -3.67226974E-01 -3.59644096E-01  3.08222206E-02  4.19412652E-02  4.87946630E-02
  6.24618842E-02  6.55008277E-02  7.06130379E-02  8.67471237E-02  1.01070600E-01
  1.09759266E-01  1.22729202E-01  1.25924972E-01  1.38215693E-01  1.39553358E-01
  1.48896673E-01  1.65467035E-01  1.70657975E-01  1.72325688E-01  1.74540196E-01
  1.77360144E-01  1.81783578E-01  1.90464392E-01  2.01594170E-01  2.04263874E-01
  2.05624842E-01  2.10694656E-01  2.15559805E-01  2.16291505E-01  2.34672165E-01
  2.47794229E-01  2.49214864E-01  2.51978610E-01  2.77649208E-01  2.91022230E-01
  2.97659859E-01  3.01014905E-01  3.15269525E-01  3.23637810E-01  3.26861987E-01
  3.31173722E-01  3.58311763E-01  3.71292996E-01  3.77670153E-01  3.79435027E-01
  3.92440025E-01  3.95599933E-01  4.18126046E-01  4.29651160E-01  4.51066758E-01
  4.80892393E-01  4.84524870E-01  5.21476183E-01  5.41926610E-01  5.96717846E-01
  6.63757146E-01  6.95654459E-01  7.00465655E-01  7.02340433E-01  7.08861913E-01
  7.18282259E-01  7.22498920E-01  7.31573370E-01  7.78275732E-01  7.85047968E-01
  7.93086076E-01  8.10358229E-01  8.15413530E-01  8.28076040E-01  8.52147838E-01
  8.70185341E-01  8.85540268E-01  9.18248017E-01  9.26511597E-01  9.42017734E-01
  9.80635013E-01  9.84707174E-01  1.00907582E+00  1.02436914E+00  1.02968808E+00
  1.05977164E+00  1.07650893E+00  1.09512755E+00  1.09960542E+00  1.10969744E+00
  1.11124970E+00  1.12623910E+00  1.19522394E+00  1.20095676E+00  1.20324121E+00
  1.20785280E+00  1.22292458E+00  1.22435288E+00  1.29233678E+00  1.32128247E+00
  1.34276271E+00  1.37451732E+00  1.38513287E+00  1.50845073E+00  1.52907722E+00
  1.56169325E+00  1.65195474E+00  1.69874851E+00  1.74386199E+00  1.74986521E+00
  1.78232801E+00  1.81089848E+00  1.81622710E+00  1.84692383E+00  1.86914708E+00
  1.89556951E+00  1.89562371E+00  1.91749973E+00  1.97635966E+00  1.99948966E+00
  2.02713658E+00  2.03497442E+00  2.04380704E+00  2.08731273E+00  2.15911086E+00
  2.20225303E+00  2.20387797E+00  2.20473912E+00  2.22116288E+00  2.22841466E+00
  2.30736200E+00  2.32320414E+00  2.34902867E+00  2.35740070E+00  2.39010586E+00
  2.41343289E+00  2.43463884E+00  2.57871930E+00  2.64218325E+00  2.66429173E+00
  2.72292628E+00  2.76897182E+00  2.80240337E+00  2.81574826E+00  2.93185045E+00
  2.94830537E+00  2.98433380E+00  2.98740933E+00  2.99147352E+00  3.00668666E+00
  3.02129956E+00  3.05316874E+00  3.05735674E+00  3.10747886E+00  3.10787034E+00
  3.16417176E+00  3.21465471E+00  3.22321240E+00  3.24387208E+00  3.26655160E+00
  3.27913000E+00  3.33933388E+00  3.36090920E+00  3.45495209E+00  3.45927462E+00
  3.46625904E+00  3.57268807E+00  3.63055771E+00  3.74331704E+00  3.78325155E+00
  3.88482185E+00  3.91202417E+00  3.98582110E+00  4.02445271E+00  4.37949746E+00
  4.40442369E+00  4.46650110E+00  4.48124660E+00  4.52641554E+00  4.54815908E+00
  4.58727923E+00  5.10447992E+00  5.24397548E+00  2.47203948E+01  2.50796857E+01
  2.50928829E+01  2.51952232E+01  2.52353416E+01  2.53280360E+01  2.56119144E+01
  3.73148645E+01
Alpha MO coefficients                      R   N=       44521
 -3.69965581E-07  2.20134037E-06  8.66917937E-07  1.53350536E-06  0.00000000E+00
 -1.89951123E-05  1.49910919E-07 -1.44800575E-05  0.00000000E+00 -1.42999079E-04
  4.77840991E-05 -4.48099305E-05  0.00000000E+00 -7.34329370E-03  1.60412335E-03
 -9.02889305E-04  0.00000000E+00 -3.84526630E-06  0.00000000E+00  0.00000000E+00
  6.02736320E-06 -7.91039262E-07 -6.51940788E-07  3.40251345E-06 -7.02577750E-07
  5.80185914E-06  0.00000000E+00 -2.77226201E-05  9.78330876E-06 -3.14432080E-05
  0.00000000E+00  2.58022104E-04 -2.45123090E-04 -1.50749904E-04  0.00000000E+00
  7.78704950E-03 -1.88839286E-03 -1.00212228E-03  0.00000000E+00 -4.18780598E-06
  0.00000000E+00  0.00000000E+00  1.38761150E-06  1.16232790E-05 -1.41728336E-06
  1.05988678E-05  1.68088982E-08 -3.81176056E-07  0.00000000E+00 -9.03982568E-05
 -3.96219829E-08 -7.78585103E-05  0.00000000E+00  9.34782136E-04  3.92517271E-07
  1.09810329E-03  0.00000000E+00 -1.56606073E-02 -2.12737400E-06 -5.73028940E-04
  0.00000000E+00 -1.06817650E-05  0.00000000E+00  0.00000000E+00  1.75191857E-05
 -4.11060514E-08 -6.51815261E-07  3.40658434E-06  6.89638321E-07  5.78244395E-06
  0.00000000E+00 -2.77937126E-05 -9.71887145E-06 -3.13681983E-05  0.00000000E+00
  2.59540338E-04  2.45520309E-04 -1.50849395E-04  0.00000000E+00  7.77596492E-03
  1.88723053E-03 -9.99419250E-04  0.00000000E+00 -4.20451718E-06  0.00000000E+00
  0.00000000E+00  1.39239327E-06 -1.16177679E-05 -3.69768587E-07  2.19921494E-06
 -8.67871100E-07  1.53867760E-06  0.00000000E+00 -1.89599663E-05 -1.43508029E-07
 -1.44966106E-05  0.00000000E+00 -1.43498911E-04 -4.79392850E-05 -4.51648242E-05
  0.00000000E+00 -7.33709019E-03 -1.60337456E-03 -9.02318183E-04  0.00000000E+00
 -3.83419579E-06  0.00000000E+00  0.00000000E+00  6.02177008E-06  7.98751874E-07
 -3.59213361E-07  2.17417008E-06  4.74792379E-09  5.15686647E-07  0.00000000E+00
 -1.95088467E-05 -2.53081041E-08 -8.62439158E-06  0.00000000E+00  1.01428559E-04
  4.31836404E-08  8.68276476E-05  0.00000000E+00  6.63413914E-03 -2.96122912E-07
  1.33018860E-03  0.00000000E+00 -3.52078840E-06  0.00000000E+00  0.00000000E+00
 -3.22349025E-06 -8.02698506E-09  9.26027730E-05 -6.67969490E-05 -1.95167401E-07
  2.23873046E-04  0.00000000E+00  5.55326186E-04 -2.84910657E-07  3.81752526E-04