 Entering Gaussian System, Link 0=g09
 Initial command:
 /apps/software//g09/l1.exe /scratch/itamar/2459.cluster.abaxnet/Gau-28402.inp -scrdir=/scratch/itamar/2459.cluster.abaxnet/
 Entering Link 1 = /apps/software//g09/l1.exe PID=     28403.
  
 Copyright (c) 1988,1990,1992,1993,1995,1998,2003,2009, Gaussian, Inc.
                  All Rights Reserved.
  
 This is part of the Gaussian(R) 09 program.  It is based on
 the Gaussian(R) 03 system (copyright 2003, Gaussian, Inc.),
 the Gaussian(R) 98 system (copyright 1998, Gaussian, Inc.),
 the Gaussian(R) 94 system (copyright 1995, Gaussian, Inc.),
 the Gaussian 92(TM) system (copyright 1992, Gaussian, Inc.),
 the Gaussian 90(TM) system (copyright 1990, Gaussian, Inc.),
 the Gaussian 88(TM) system (copyright 1988, Gaussian, Inc.),
 the Gaussian 86(TM) system (copyright 1986, Carnegie Mellon
 University), and the Gaussian 82(TM) system (copyright 1983,
 Carnegie Mellon University). Gaussian is a federally registered
 trademark of Gaussian, Inc.
  
 This software contains proprietary and confidential information,
 including trade secrets, belonging to Gaussian, Inc.
  
 This software is provided under written license and may be
 used, copied, transmitted, or stored only in accord with that
 written license.
  
 The following legend is applicable only to US Government
 contracts under FAR:
  
                    RESTRICTED RIGHTS LEGEND
  
 Use, reproduction and disclosure by the US Government is
 subject to restrictions as set forth in subparagraphs (a)
 and (c) of the Commercial Computer Software - Restricted
 Rights clause in FAR 52.227-19.
  
 Gaussian, Inc.
 340 Quinnipiac St., Bldg. 40, Wallingford CT 06492
  
  
 ---------------------------------------------------------------
 Warning -- This program may not be used in any manner that
 competes with the business of Gaussian, Inc. or will provide
 assistance to any competitor of Gaussian, Inc.  The licensee
 of this program is prohibited from giving any competitor of
 Gaussian, Inc. access to this program.  By using this program,
 the user acknowledges that Gaussian, Inc. is engaged in the
 business of creating and licensing software in the field of
 computational chemistry and represents and warrants to the
 licensee that it is not a competitor of Gaussian, Inc. and that
 it will not use this program in any manner prohibited above.
 ---------------------------------------------------------------
  

 Cite this work as:
 Gaussian 09, Revision A.02,
 M. J. Frisch, G. W. Trucks, H. B. Schlegel, G. E. Scuseria, 
 M. A. Robb, J. R. Cheeseman, G. Scalmani, V. Barone, B. Mennucci, 
 G. A. Petersson, H. Nakatsuji, M. Caricato, X. Li, H. P. Hratchian, 
 A. F. Izmaylov, J. Bloino, G. Zheng, J. L. Sonnenberg, M. Hada, 
 M. Ehara, K. Toyota, R. Fukuda, J. Hasegawa, M. Ishida, T. Nakajima, 
 Y. Honda, O. Kitao, H. Nakai, T. Vreven, J. A. Montgomery, Jr., 
 J. E. Peralta, F. Ogliaro, M. Bearpark, J. J. Heyd, E. Brothers, 
 K. N. Kudin, V. N. Staroverov, R. Kobayashi, J. Normand, 
 K. Raghavachari, A. Rendell, J. C. Burant, S. S. Iyengar, J. Tomasi, 
 M. Cossi, N. Rega, J. M. Millam, M. Klene, J. E. Knox, J. B. Cross, 
 V. Bakken, C. Adamo, J. Jaramillo, R. Gomperts, R. E. Stratmann, 
 O. Yazyev, A. J. Austin, R. Cammi, C. Pomelli, J. W. Ochterski, 
 R. L. Martin, K. Morokuma, V. G. Zakrzewski, G. A. Voth, 
 P. Salvador, J. J. Dannenberg, S. Dapprich, A. D. Daniels, 
 O. Farkas, J. B. Foresman, J. V. Ortiz, J. Cioslowski, 
 and D. J. Fox, Gaussian, Inc., Wallingford CT, 2009.
 
 ******************************************
 Gaussian 09:  EM64L-G09RevA.02 11-Jun-2009
                 3-Dec-2021 
 ******************************************
 %Mem=3800MB
 %NProcShared=6
 Will use up to    6 processors via shared memory.
 %chk=/home/itamar/Aromaticity-test-set/T6-Subst-Complex-in-Benzene/CN/cn.chk
 -----------------------------
 #P MP2/6-311++G** DENSITY=MP2
 -----------------------------
 1/30=1,38=1/1;
 2/12=2,17=6,18=5,40=1/2;
 3/5=4,6=6,7=1111,11=9,16=1,25=1,30=1,71=1/1,2,3;
 4//1;
 5/5=2,38=5/2;
 8/6=4,10=2/1;
 9/15=1,16=-3/6;
 10/5=1,13=10/2;
 6/7=2,8=2,9=2,10=2,22=2/1;
 99/5=1,9=1/99;
 Leave Link    1 at Fri Dec  3 14:24:24 2021, MaxMem=  498073600 cpu:       0.2
 (Enter /apps/software//g09/l101.exe)
 ----
 X=CN
 ----
 Symbolic Z-matrix:
 Charge =  0 Multiplicity = 1
 6                     1.20909  -1.48049   0. 
 6                     1.21516  -0.09012   0. 
 6                     0.        0.61034   0. 
 6                    -1.21488  -0.09067   0. 
 6                    -1.20819  -1.48101   0. 
 6                     0.00061  -2.17665   0. 
 6                    -0.00045   2.04251   0. 
 1                    -2.14877   0.45752   0. 
 1                    -2.14712  -2.02184   0. 
 1                     0.00083  -3.26048   0. 
 1                     2.14828  -2.02088   0. 
 1                     2.14883   0.45844   0. 
 7                    -0.00145   3.19767   0. 
 
 NAtoms=     13 NQM=     13 NQMF=      0 NMic=      0 NMicF=      0 NTot=     13.
                    Isotopes and Nuclear Properties:
 (Nuclear quadrupole moments (NQMom) in fm**2, nuclear magnetic moments (NMagM)
  in nuclear magnetons)

  Atom         1           2           3           4           5           6           7           8           9          10
 IAtWgt=          12          12          12          12          12          12          12           1           1           1
 AtmWgt=  12.0000000  12.0000000  12.0000000  12.0000000  12.0000000  12.0000000  12.0000000   1.0078250   1.0078250   1.0078250
 NucSpn=           0           0           0           0           0           0           0           1           1           1
 AtZEff=   0.0000000   0.0000000   0.0000000   0.0000000   0.0000000   0.0000000   0.0000000   0.0000000   0.0000000   0.0000000
 NQMom=    0.0000000   0.0000000   0.0000000   0.0000000   0.0000000   0.0000000   0.0000000   0.0000000   0.0000000   0.0000000
 NMagM=    0.0000000   0.0000000   0.0000000   0.0000000   0.0000000   0.0000000   0.0000000   2.7928460   2.7928460   2.7928460

  Atom        11          12          13
 IAtWgt=           1           1          14
 AtmWgt=   1.0078250   1.0078250  14.0030740
 NucSpn=           1           1           2
 AtZEff=   0.0000000   0.0000000   0.0000000
 NQMom=    0.0000000   0.0000000   2.0440000
 NMagM=    2.7928460   2.7928460   0.4037610
 Leave Link  101 at Fri Dec  3 14:24:25 2021, MaxMem=  498073600 cpu:       0.2
 (Enter /apps/software//g09/l202.exe)
                          Input orientation:                          
 ---------------------------------------------------------------------
 Center     Atomic      Atomic             Coordinates (Angstroms)
 Number     Number       Type             X           Y           Z
 ---------------------------------------------------------------------
      1          6           0        1.209094   -1.480487    0.000000
      2          6           0        1.215157   -0.090122    0.000000
      3          6           0        0.000000    0.610344    0.000000
      4          6           0       -1.214876   -0.090665    0.000000
      5          6           0       -1.208191   -1.481008    0.000000
      6          6           0        0.000613   -2.176651    0.000000
      7          6           0       -0.000450    2.042515    0.000000
      8          1           0       -2.148770    0.457518    0.000000
      9          1           0       -2.147125   -2.021842    0.000000
     10          1           0        0.000834   -3.260477    0.000000
     11          1           0        2.148279   -2.020884    0.000000
     12          1           0        2.148829    0.458443    0.000000
     13          7           0       -0.001446    3.197669    0.000000
 ---------------------------------------------------------------------
                    Distance matrix (angstroms):
                    1          2          3          4          5
     1  C    0.000000
     2  C    1.390378   0.000000
     3  C    2.415260   1.402590   0.000000
     4  C    2.794143   2.430033   1.402618   0.000000
     5  C    2.417285   2.794133   2.415260   1.390359   0.000000
     6  C    1.394658   2.414274   2.786995   2.414281   1.394678
     7  C    3.724854   2.454759   1.432171   2.454646   3.724762
     8  H    3.876998   3.408213   2.154198   1.082895   2.154663
     9  H    3.399599   3.877690   3.396844   2.144419   1.083558
    10  H    2.151338   3.394957   3.870821   3.394946   2.151337
    11  H    1.083558   2.144425   3.396831   3.877700   3.399611
    12  H    2.154658   1.082897   2.154191   3.408230   3.876990
    13  N    4.832241   3.505666   2.587325   3.505075   4.831796
                    6          7          8          9         10
     6  C    0.000000
     7  C    4.219166   0.000000
     8  H    3.399808   2.669737   0.000000
     9  H    2.153310   4.596435   2.479361   0.000000
    10  H    1.083826   5.302992   4.294681   2.479505   0.000000
    11  H    2.153307   4.596547   4.960555   4.295404   2.479538
    12  H    3.399787   2.669960   4.297599   4.960548   4.294677
    13  N    5.374320   1.155154   3.481297   5.643335   6.458146
                   11         12         13
    11  H    0.000000
    12  H    2.479327   0.000000
    13  N    5.643989   3.482390   0.000000
 Stoichiometry    C7H5N
 Framework group  CS[SG(C7H5N)]
 Deg. of freedom    23
 Full point group                 CS      NOp   2
 Largest Abelian subgroup         CS      NOp   2
 Largest concise Abelian subgroup C1      NOp   1
                         Standard orientation:                         
 ---------------------------------------------------------------------
 Center     Atomic      Atomic             Coordinates (Angstroms)
 Number     Number       Type             X           Y           Z
 ---------------------------------------------------------------------
      1          6           0        1.209094   -1.480487    0.000000
      2          6           0        1.215157   -0.090122    0.000000
      3          6           0        0.000000    0.610344    0.000000
      4          6           0       -1.214876   -0.090665    0.000000
      5          6           0       -1.208191   -1.481008    0.000000
      6          6           0        0.000612   -2.176651    0.000000
      7          6           0       -0.000450    2.042515    0.000000
      8          1           0       -2.148770    0.457519    0.000000
      9          1           0       -2.147126   -2.021841    0.000000
     10          1           0        0.000833   -3.260477    0.000000
     11          1           0        2.148278   -2.020884    0.000000
     12          1           0        2.148829    0.458443    0.000000
     13          7           0       -0.001445    3.197669    0.000000
 ---------------------------------------------------------------------
 Rotational constants (GHZ):      5.6724027      1.5484880      1.2164216
 Leave Link  202 at Fri Dec  3 14:24:25 2021, MaxMem=  498073600 cpu:       0.1
 (Enter /apps/software//g09/l301.exe)
 Standard basis: 6-311++G(d,p) (5D, 7F)
 Ernie: Thresh=  0.10000D-02 Tol=  0.10000D-05 Strict=F.
 There are   158 symmetry adapted basis functions of A'  symmetry.
 There are    53 symmetry adapted basis functions of A"  symmetry.
 Integral buffers will be    131072 words long.
 Raffenetti 1 integral format.
 Two-electron integral symmetry is turned on.
   211 basis functions,   333 primitive gaussians,   219 cartesian basis functions
    27 alpha electrons       27 beta electrons
       nuclear repulsion energy       299.8260713257 Hartrees.
 IExCor=    0 DFT=F Ex=HF Corr=None ExCW=0 ScaHFX=  1.000000
 ScaDFX=  1.000000  1.000000  1.000000  1.000000 ScalE2=  1.000000  1.000000
 IRadAn=      0 IRanWt=     -1 IRanGd=            0 ICorTp=0
 NAtoms=   13 NActive=   13 NUniq=   13 SFac= 7.50D-01 NAtFMM=   80 NAOKFM=F Big=F
 Leave Link  301 at Fri Dec  3 14:24:25 2021, MaxMem=  498073600 cpu:       0.3
 (Enter /apps/software//g09/l302.exe)
 NPDir=0 NMtPBC=     1 NCelOv=     1 NCel=       1 NClECP=     1 NCelD=      1
         NCelK=      1 NCelE2=     1 NClLst=     1 CellRange=     0.0.
 One-electron integrals computed using PRISM.
 NBasis=   211 RedAO= T  NBF=   158    53
 NBsUse=   211 1.00D-06 NBFU=   158    53
 Leave Link  302 at Fri Dec  3 14:24:25 2021, MaxMem=  498073600 cpu:       1.4
 (Enter /apps/software//g09/l303.exe)
 DipDrv:  MaxL=1.
 Leave Link  303 at Fri Dec  3 14:24:25 2021, MaxMem=  498073600 cpu:       0.2
 (Enter /apps/software//g09/l401.exe)
 Harris functional with IExCor=  205 diagonalized for initial guess.
 ExpMin= 3.60D-02 ExpMax= 6.29D+03 ExpMxC= 9.49D+02 IAcc=3 IRadAn=         0 AccDes= 0.00D+00
 HarFok:  IExCor=  205 AccDes= 0.00D+00 IRadAn=         0 IDoV= 1
 ScaDFX=  1.000000  1.000000  1.000000  1.000000
 FoFCou: FMM=F IPFlag=           0 FMFlag=      100000 FMFlg1=           0
         NFxFlg=           0 DoJE=T BraDBF=F KetDBF=T FulRan=T
         Omega=  0.000000  0.000000  1.000000  0.000000  0.000000 ICntrl=     500 IOpCl=  0
         NMat0=    1 NMatS0=    1 NMatT0=    0 NMatD0=    1 NMtDS0=    0 NMtDT0=    0
         I1Cent=           4 NGrid=           0.
 Petite list used in FoFCou.
 Harris En= -322.901635854747    
 Initial guess orbital symmetries:
       Occupied  (A') (A') (A') (A') (A') (A') (A') (A') (A') (A')
                 (A') (A') (A') (A') (A') (A') (A') (A') (A') (A")
                 (A') (A') (A') (A") (A') (A") (A")
       Virtual   (A") (A") (A') (A") (A') (A') (A') (A") (A') (A')
                 (A') (A") (A') (A') (A') (A") (A") (A') (A') (A')
                 (A') (A') (A") (A') (A") (A') (A') (A') (A') (A")
                 (A') (A') (A") (A') (A') (A') (A') (A') (A') (A')
                 (A') (A") (A') (A') (A') (A') (A') (A') (A') (A')
                 (A') (A') (A') (A') (A') (A') (A") (A") (A') (A')
                 (A") (A') (A") (A") (A') (A') (A") (A") (A') (A')
                 (A') (A') (A') (A') (A') (A') (A') (A') (A') (A")
                 (A') (A') (A') (A') (A") (A') (A") (A') (A') (A")
                 (A') (A') (A') (A") (A") (A") (A") (A') (A') (A')
                 (A') (A') (A') (A") (A") (A') (A") (A') (A') (A')
                 (A') (A") (A') (A') (A") (A") (A') (A') (A") (A")
                 (A') (A') (A') (A') (A") (A') (A") (A') (A") (A')
                 (A") (A') (A") (A') (A') (A') (A') (A") (A') (A")
                 (A') (A') (A") (A') (A') (A') (A") (A') (A') (A")
                 (A") (A') (A') (A') (A') (A") (A") (A') (A') (A')
                 (A') (A') (A') (A') (A') (A') (A') (A") (A') (A')
                 (A') (A') (A') (A') (A') (A') (A') (A') (A') (A')
                 (A') (A') (A') (A')
 The electronic state of the initial guess is 1-A'.
 Leave Link  401 at Fri Dec  3 14:24:26 2021, MaxMem=  498073600 cpu:       3.9
 (Enter /apps/software//g09/l502.exe)
 Closed shell SCF:
 Requested convergence on RMS density matrix=1.00D-08 within 128 cycles.
 Requested convergence on MAX density matrix=1.00D-06.
 Requested convergence on             energy=1.00D-06.
 No special actions if energy rises.
 Using DIIS extrapolation, IDIIS=  1040.
 Integral symmetry usage will be decided dynamically.
 Keep R1 ints in memory in canonical form, NReq=295665039.
 IEnd=      165040 IEndB=      165040 NGot=   498073600 MDV=   207797258
 LenX=   207797258 LenY=   207748856
 Symmetry not used in FoFDir.
 MinBra= 0 MaxBra= 2 Meth= 1.
 IRaf=       0 NMat=   1 IRICut=       1 DoRegI=T DoRafI=F ISym2E= 0 JSym2E=0.

 Cycle   1  Pass 1  IDiag  1:
 E= -322.185141774279    
 DIIS: error= 6.95D-02 at cycle   1 NSaved=   1.
 NSaved= 1 IEnMin= 1 EnMin= -322.185141774279     IErMin= 1 ErrMin= 6.95D-02
 ErrMax= 6.95D-02 EMaxC= 1.00D-01 BMatC= 6.45D-01 BMatP= 6.45D-01
 IDIUse=3 WtCom= 3.05D-01 WtEn= 6.95D-01
 Coeff-Com:  0.100D+01
 Coeff-En:   0.100D+01
 Coeff:      0.100D+01
 Gap=     0.433 Goal=   None    Shift=    0.000
 GapD=    0.433 DampG=2.000 DampE=0.500 DampFc=1.0000 IDamp=-1.
 RMSDP=2.69D-02 MaxDP=2.03D+00              OVMax= 1.43D-01

 Cycle   2  Pass 1  IDiag  1:
 E= -322.460213017046     Delta-E=       -0.275071242768 Rises=F Damp=F
 DIIS: error= 1.89D-02 at cycle   2 NSaved=   2.
 NSaved= 2 IEnMin= 2 EnMin= -322.460213017046     IErMin= 2 ErrMin= 1.89D-02
 ErrMax= 1.89D-02 EMaxC= 1.00D-01 BMatC= 5.61D-02 BMatP= 6.45D-01
 IDIUse=3 WtCom= 8.11D-01 WtEn= 1.89D-01
 Coeff-Com:  0.137D+00 0.863D+00
 Coeff-En:   0.000D+00 0.100D+01
 Coeff:      0.111D+00 0.889D+00
 Gap=     0.413 Goal=   None    Shift=    0.000
 RMSDP=1.02D-02 MaxDP=5.49D-01 DE=-2.75D-01 OVMax= 6.47D-02

 Cycle   3  Pass 1  IDiag  1:
 E= -322.496264153570     Delta-E=       -0.036051136524 Rises=F Damp=F
 DIIS: error= 9.61D-03 at cycle   3 NSaved=   3.
 NSaved= 3 IEnMin= 3 EnMin= -322.496264153570     IErMin= 3 ErrMin= 9.61D-03
 ErrMax= 9.61D-03 EMaxC= 1.00D-01 BMatC= 1.46D-02 BMatP= 5.61D-02
 IDIUse=3 WtCom= 9.04D-01 WtEn= 9.61D-02
 Coeff-Com: -0.114D-01 0.319D+00 0.692D+00
 Coeff-En:   0.000D+00 0.501D-01 0.950D+00
 Coeff:     -0.103D-01 0.293D+00 0.717D+00
 Gap=     0.398 Goal=   None    Shift=    0.000
 RMSDP=4.50D-03 MaxDP=4.78D-01 DE=-3.61D-02 OVMax= 3.77D-02

 Cycle   4  Pass 1  IDiag  1:
 E= -322.507749568036     Delta-E=       -0.011485414466 Rises=F Damp=F
 DIIS: error= 3.55D-03 at cycle   4 NSaved=   4.
 NSaved= 4 IEnMin= 4 EnMin= -322.507749568036     IErMin= 4 ErrMin= 3.55D-03
 ErrMax= 3.55D-03 EMaxC= 1.00D-01 BMatC= 1.26D-03 BMatP= 1.46D-02
 IDIUse=3 WtCom= 9.64D-01 WtEn= 3.55D-02
 Coeff-Com: -0.102D-01 0.737D-01 0.296D+00 0.641D+00
 Coeff-En:   0.000D+00 0.000D+00 0.000D+00 0.100D+01
 Coeff:     -0.982D-02 0.711D-01 0.285D+00 0.653D+00
 Gap=     0.390 Goal=   None    Shift=    0.000
 RMSDP=1.75D-03 MaxDP=1.28D-01 DE=-1.15D-02 OVMax= 9.44D-03

 Cycle   5  Pass 1  IDiag  1:
 E= -322.508864095855     Delta-E=       -0.001114527819 Rises=F Damp=F
 DIIS: error= 8.12D-04 at cycle   5 NSaved=   5.
 NSaved= 5 IEnMin= 5 EnMin= -322.508864095855     IErMin= 5 ErrMin= 8.12D-04
 ErrMax= 8.12D-04 EMaxC= 1.00D-01 BMatC= 3.04D-05 BMatP= 1.26D-03
 IDIUse=3 WtCom= 9.92D-01 WtEn= 8.12D-03
 Coeff-Com: -0.430D-03-0.133D-01-0.189D-01 0.886D-01 0.944D+00
 Coeff-En:   0.000D+00 0.000D+00 0.000D+00 0.000D+00 0.100D+01
 Coeff:     -0.426D-03-0.132D-01-0.187D-01 0.878D-01 0.945D+00
 Gap=     0.390 Goal=   None    Shift=    0.000
 RMSDP=1.94D-04 MaxDP=1.07D-02 DE=-1.11D-03 OVMax= 2.39D-03

 Cycle   6  Pass 1  IDiag  1:
 E= -322.508906399413     Delta-E=       -0.000042303558 Rises=F Damp=F
 DIIS: error= 1.60D-04 at cycle   6 NSaved=   6.
 NSaved= 6 IEnMin= 6 EnMin= -322.508906399413     IErMin= 6 ErrMin= 1.60D-04
 ErrMax= 1.60D-04 EMaxC= 1.00D-01 BMatC= 2.24D-06 BMatP= 3.04D-05
 IDIUse=3 WtCom= 9.98D-01 WtEn= 1.60D-03
 Coeff-Com:  0.821D-03-0.832D-02-0.281D-01-0.539D-01 0.735D-01 0.102D+01
 Coeff-En:   0.000D+00 0.000D+00 0.000D+00 0.000D+00 0.000D+00 0.100D+01
 Coeff:      0.819D-03-0.831D-02-0.280D-01-0.538D-01 0.733D-01 0.102D+01
 Gap=     0.390 Goal=   None    Shift=    0.000
 RMSDP=1.42D-04 MaxDP=6.83D-03 DE=-4.23D-05 OVMax= 7.08D-04

 Cycle   7  Pass 1  IDiag  1:
 E= -322.508910812259     Delta-E=       -0.000004412847 Rises=F Damp=F
 DIIS: error= 7.33D-05 at cycle   7 NSaved=   7.
 NSaved= 7 IEnMin= 7 EnMin= -322.508910812259     IErMin= 7 ErrMin= 7.33D-05
 ErrMax= 7.33D-05 EMaxC= 1.00D-01 BMatC= 1.97D-07 BMatP= 2.24D-06
 IDIUse=1 WtCom= 1.00D+00 WtEn= 0.00D+00
 Coeff-Com:  0.774D-04-0.169D-04-0.335D-03-0.967D-02-0.418D-01 0.487D-01
 Coeff-Com:  0.100D+01
 Coeff:      0.774D-04-0.169D-04-0.335D-03-0.967D-02-0.418D-01 0.487D-01
 Coeff:      0.100D+01
 Gap=     0.390 Goal=   None    Shift=    0.000
 RMSDP=2.55D-05 MaxDP=1.70D-03 DE=-4.41D-06 OVMax= 3.24D-04

 Cycle   8  Pass 1  IDiag  1:
 E= -322.508911435072     Delta-E=       -0.000000622812 Rises=F Damp=F
 DIIS: error= 4.55D-05 at cycle   8 NSaved=   8.
 NSaved= 8 IEnMin= 8 EnMin= -322.508911435072     IErMin= 8 ErrMin= 4.55D-05
 ErrMax= 4.55D-05 EMaxC= 1.00D-01 BMatC= 5.50D-08 BMatP= 1.97D-07
 IDIUse=1 WtCom= 1.00D+00 WtEn= 0.00D+00
 Coeff-Com: -0.115D-03 0.117D-02 0.408D-02 0.731D-02-0.646D-02-0.139D+00
 Coeff-Com: -0.116D+00 0.125D+01
 Coeff:     -0.115D-03 0.117D-02 0.408D-02 0.731D-02-0.646D-02-0.139D+00
 Coeff:     -0.116D+00 0.125D+01
 Gap=     0.390 Goal=   None    Shift=    0.000
 RMSDP=1.32D-05 MaxDP=4.80D-04 DE=-6.23D-07 OVMax= 2.97D-04

 Cycle   9  Pass 1  IDiag  1:
 E= -322.508911713342     Delta-E=       -0.000000278270 Rises=F Damp=F
 DIIS: error= 2.44D-05 at cycle   9 NSaved=   9.
 NSaved= 9 IEnMin= 9 EnMin= -322.508911713342     IErMin= 9 ErrMin= 2.44D-05
 ErrMax= 2.44D-05 EMaxC= 1.00D-01 BMatC= 1.80D-08 BMatP= 5.50D-08
 IDIUse=1 WtCom= 1.00D+00 WtEn= 0.00D+00
 Coeff-Com: -0.386D-04 0.151D-03 0.541D-03 0.355D-02 0.123D-01-0.219D-01
 Coeff-Com: -0.371D+00 0.188D+00 0.119D+01
 Coeff:     -0.386D-04 0.151D-03 0.541D-03 0.355D-02 0.123D-01-0.219D-01
 Coeff:     -0.371D+00 0.188D+00 0.119D+01
 Gap=     0.390 Goal=   None    Shift=    0.000
 RMSDP=9.04D-06 MaxDP=3.41D-04 DE=-2.78D-07 OVMax= 1.86D-04

 Cycle  10  Pass 1  IDiag  1:
 E= -322.508911819235     Delta-E=       -0.000000105894 Rises=F Damp=F
 DIIS: error= 9.16D-06 at cycle  10 NSaved=  10.
 NSaved=10 IEnMin=10 EnMin= -322.508911819235     IErMin=10 ErrMin= 9.16D-06
 ErrMax= 9.16D-06 EMaxC= 1.00D-01 BMatC= 2.80D-09 BMatP= 1.80D-08
 IDIUse=1 WtCom= 1.00D+00 WtEn= 0.00D+00
 Coeff-Com:  0.307D-04-0.302D-03-0.111D-02-0.203D-02-0.112D-02 0.423D-01
 Coeff-Com:  0.546D-01-0.293D+00-0.234D+00 0.144D+01
 Coeff:      0.307D-04-0.302D-03-0.111D-02-0.203D-02-0.112D-02 0.423D-01
 Coeff:      0.546D-01-0.293D+00-0.234D+00 0.144D+01
 Gap=     0.390 Goal=   None    Shift=    0.000
 RMSDP=5.40D-06 MaxDP=2.74D-04 DE=-1.06D-07 OVMax= 1.19D-04

 Cycle  11  Pass 1  IDiag  1:
 E= -322.508911837964     Delta-E=       -0.000000018728 Rises=F Damp=F
 DIIS: error= 1.59D-06 at cycle  11 NSaved=  11.
 NSaved=11 IEnMin=11 EnMin= -322.508911837964     IErMin=11 ErrMin= 1.59D-06
 ErrMax= 1.59D-06 EMaxC= 1.00D-01 BMatC= 2.14D-10 BMatP= 2.80D-09
 IDIUse=1 WtCom= 1.00D+00 WtEn= 0.00D+00
 Coeff-Com:  0.451D-05-0.223D-04-0.778D-04-0.250D-03-0.140D-02 0.289D-02
 Coeff-Com:  0.343D-01-0.527D-02-0.139D+00 0.498D-01 0.106D+01
 Coeff:      0.451D-05-0.223D-04-0.778D-04-0.250D-03-0.140D-02 0.289D-02
 Coeff:      0.343D-01-0.527D-02-0.139D+00 0.498D-01 0.106D+01
 Gap=     0.390 Goal=   None    Shift=    0.000
 RMSDP=1.33D-06 MaxDP=9.46D-05 DE=-1.87D-08 OVMax= 1.64D-05

 Cycle  12  Pass 1  IDiag  1:
 E= -322.508911838589     Delta-E=       -0.000000000625 Rises=F Damp=F
 DIIS: error= 4.08D-07 at cycle  12 NSaved=  12.
 NSaved=12 IEnMin=12 EnMin= -322.508911838589     IErMin=12 ErrMin= 4.08D-07
 ErrMax= 4.08D-07 EMaxC= 1.00D-01 BMatC= 2.69D-11 BMatP= 2.14D-10
 IDIUse=1 WtCom= 1.00D+00 WtEn= 0.00D+00
 Coeff-Com: -0.288D-05 0.333D-04 0.121D-03 0.243D-03-0.165D-03-0.495D-02
 Coeff-Com: -0.127D-02 0.394D-01-0.458D-02-0.171D+00 0.177D+00 0.966D+00
 Coeff:     -0.288D-05 0.333D-04 0.121D-03 0.243D-03-0.165D-03-0.495D-02
 Coeff:     -0.127D-02 0.394D-01-0.458D-02-0.171D+00 0.177D+00 0.966D+00
 Gap=     0.390 Goal=   None    Shift=    0.000
 RMSDP=2.23D-07 MaxDP=7.12D-06 DE=-6.25D-10 OVMax= 5.07D-06

 Cycle  13  Pass 1  IDiag  1:
 E= -322.508911838654     Delta-E=       -0.000000000065 Rises=F Damp=F
 DIIS: error= 1.74D-07 at cycle  13 NSaved=  13.
 NSaved=13 IEnMin=13 EnMin= -322.508911838654     IErMin=13 ErrMin= 1.74D-07
 ErrMax= 1.74D-07 EMaxC= 1.00D-01 BMatC= 1.75D-12 BMatP= 2.69D-11
 IDIUse=1 WtCom= 1.00D+00 WtEn= 0.00D+00
 Coeff-Com:  0.543D-06-0.806D-05-0.325D-04-0.497D-04 0.112D-03 0.135D-02
 Coeff-Com: -0.189D-02-0.106D-01 0.683D-02 0.521D-01-0.132D+00-0.262D+00
 Coeff-Com:  0.135D+01
 Coeff:      0.543D-06-0.806D-05-0.325D-04-0.497D-04 0.112D-03 0.135D-02
 Coeff:     -0.189D-02-0.106D-01 0.683D-02 0.521D-01-0.132D+00-0.262D+00
 Coeff:      0.135D+01
 Gap=     0.390 Goal=   None    Shift=    0.000
 RMSDP=1.15D-07 MaxDP=7.94D-06 DE=-6.47D-11 OVMax= 1.35D-06

 Cycle  14  Pass 1  IDiag  1:
 E= -322.508911838660     Delta-E=       -0.000000000006 Rises=F Damp=F
 DIIS: error= 8.51D-08 at cycle  14 NSaved=  14.
 NSaved=14 IEnMin=14 EnMin= -322.508911838660     IErMin=14 ErrMin= 8.51D-08
 ErrMax= 8.51D-08 EMaxC= 1.00D-01 BMatC= 3.62D-13 BMatP= 1.75D-12
 IDIUse=1 WtCom= 1.00D+00 WtEn= 0.00D+00
 Coeff-Com:  0.347D-06-0.408D-05-0.145D-04-0.306D-04 0.173D-04 0.598D-03
 Coeff-Com:  0.274D-03-0.480D-02 0.684D-03 0.225D-01-0.275D-01-0.999D-01
 Coeff-Com:  0.364D-02 0.110D+01
 Coeff:      0.347D-06-0.408D-05-0.145D-04-0.306D-04 0.173D-04 0.598D-03
 Coeff:      0.274D-03-0.480D-02 0.684D-03 0.225D-01-0.275D-01-0.999D-01
 Coeff:      0.364D-02 0.110D+01
 Gap=     0.390 Goal=   None    Shift=    0.000
 RMSDP=4.17D-08 MaxDP=3.57D-06 DE=-6.25D-12 OVMax= 6.75D-07

 Cycle  15  Pass 1  IDiag  1:
 E= -322.508911838658     Delta-E=        0.000000000002 Rises=F Damp=F
 DIIS: error= 4.49D-08 at cycle  15 NSaved=  15.
 NSaved=15 IEnMin=14 EnMin= -322.508911838660     IErMin=15 ErrMin= 4.49D-08
 ErrMax= 4.49D-08 EMaxC= 1.00D-01 BMatC= 7.35D-14 BMatP= 3.62D-13
 IDIUse=1 WtCom= 1.00D+00 WtEn= 0.00D+00
 Coeff-Com: -0.149D-06 0.224D-05 0.930D-05 0.131D-04-0.299D-04-0.393D-03
 Coeff-Com:  0.589D-03 0.267D-02-0.199D-02-0.150D-01 0.339D-01 0.848D-01
 Coeff-Com: -0.343D+00-0.256D+00 0.149D+01
 Coeff:     -0.149D-06 0.224D-05 0.930D-05 0.131D-04-0.299D-04-0.393D-03
 Coeff:      0.589D-03 0.267D-02-0.199D-02-0.150D-01 0.339D-01 0.848D-01
 Coeff:     -0.343D+00-0.256D+00 0.149D+01
 Gap=     0.390 Goal=   None    Shift=    0.000
 RMSDP=2.36D-08 MaxDP=2.11D-06 DE= 2.27D-12 OVMax= 4.11D-07

 Cycle  16  Pass 1  IDiag  1:
 E= -322.508911838662     Delta-E=       -0.000000000004 Rises=F Damp=F
 DIIS: error= 8.34D-09 at cycle  16 NSaved=  16.
 NSaved=16 IEnMin=16 EnMin= -322.508911838662     IErMin=16 ErrMin= 8.34D-09
 ErrMax= 8.34D-09 EMaxC= 1.00D-01 BMatC= 5.78D-15 BMatP= 7.35D-14
 IDIUse=1 WtCom= 1.00D+00 WtEn= 0.00D+00
 Large coefficients: NSaved= 16 BigCof=    0.00 CofMax=   10.00 Det=-6.63D-15
 Inversion failed.  Reducing to 15 matrices.
 Coeff-Com: -0.132D-06-0.862D-06-0.399D-06 0.796D-05 0.391D-04-0.172D-03
 Coeff-Com: -0.242D-03 0.608D-03 0.140D-02-0.666D-02-0.103D-01 0.939D-01
 Coeff-Com: -0.128D+00-0.255D+00 0.130D+01
 Coeff:     -0.132D-06-0.862D-06-0.399D-06 0.796D-05 0.391D-04-0.172D-03
 Coeff:     -0.242D-03 0.608D-03 0.140D-02-0.666D-02-0.103D-01 0.939D-01
 Coeff:     -0.128D+00-0.255D+00 0.130D+01
 Gap=     0.390 Goal=   None    Shift=    0.000
 RMSDP=1.45D-08 MaxDP=6.90D-07 DE=-4.32D-12 OVMax= 1.17D-07

 Cycle  17  Pass 1  IDiag  1:
 E= -322.508911838664     Delta-E=       -0.000000000002 Rises=F Damp=F
 DIIS: error= 1.18D-09 at cycle  17 NSaved=  16.
 NSaved=16 IEnMin=16 EnMin= -322.508911838664     IErMin=16 ErrMin= 1.18D-09
 ErrMax= 1.18D-09 EMaxC= 1.00D-01 BMatC= 1.42D-16 BMatP= 5.78D-15
 IDIUse=1 WtCom= 1.00D+00 WtEn= 0.00D+00
 Large coefficients: NSaved= 16 BigCof=    0.00 CofMax=   10.00 Det=-4.90D-16
 Inversion failed.  Reducing to 15 matrices.
 Coeff-Com:  0.215D-07-0.133D-06-0.797D-06 0.271D-06 0.661D-05-0.291D-04
 Coeff-Com:  0.412D-05 0.748D-04 0.149D-03-0.338D-03-0.610D-02 0.314D-01
 Coeff-Com:  0.281D-02-0.292D+00 0.126D+01
 Coeff:      0.215D-07-0.133D-06-0.797D-06 0.271D-06 0.661D-05-0.291D-04
 Coeff:      0.412D-05 0.748D-04 0.149D-03-0.338D-03-0.610D-02 0.314D-01
 Coeff:      0.281D-02-0.292D+00 0.126D+01
 Gap=     0.390 Goal=   None    Shift=    0.000
 RMSDP=9.58D-09 MaxDP=5.56D-07 DE=-1.59D-12 OVMax= 1.16D-08

 SCF Done:  E(RHF) =  -322.508911839     A.U. after   17 cycles
             Convg  =    0.9579D-08             -V/T =  2.0013
 KE= 3.220745688532D+02 PE=-1.350634468903D+03 EE= 4.062249168858D+02
 Leave Link  502 at Fri Dec  3 14:24:51 2021, MaxMem=  498073600 cpu:     150.4
 (Enter /apps/software//g09/l801.exe)
 ExpMin= 3.60D-02 ExpMax= 6.29D+03 ExpMxC= 9.49D+02 IAcc=3 IRadAn=         5 AccDes= 0.00D+00
 HarFok:  IExCor=  205 AccDes= 0.00D+00 IRadAn=         5 IDoV=-2
 ScaDFX=  1.000000  1.000000  1.000000  1.000000
 Largest valence mixing into a core orbital is  1.37D-04
 Largest core mixing into a valence orbital is  4.11D-05
 Range of M.O.s used for correlation:     9   211
 NBasis=   211 NAE=    27 NBE=    27 NFC=     8 NFV=     0
 NROrb=    203 NOA=    19 NOB=    19 NVA=   184 NVB=   184

 **** Warning!!: The largest alpha MO coefficient is  0.16879807D+03

 Leave Link  801 at Fri Dec  3 14:24:51 2021, MaxMem=  498073600 cpu:       1.3
 (Enter /apps/software//g09/l906.exe)
 Frozen-core derivative calculation, NFC=   8 NFV=   0.
 FulOut=F Deriv=T AODrv=F NAtomX=    13
   MMem=          95  MDisk=          19 MDiskD=          19
  W3Min=     1247643 MinDsk=     1758638 NBas6D=         219
 NBas2D=       24417    NTT=       24090    LW2=     2040000
    MDV=   497525409 MDiskM=       31426 NBas2p=       23485
 Fully direct method using O(ONN) memory.
 IMap=   1   2   3   4   5   6   7   8   9  10  11  12  13  14  15  16  17  18  19  20
 IMap=  21  22  23  24  25  26  27
 JobTyp=1 Pass  1:  I=   9 to  22 NPSUse=  6 ParTrn=T ParDer=T DoDerP=T.
 JobTyp=1 Pass  2:  I=  23 to  27 NPSUse=  6 ParTrn=T ParDer=T DoDerP=T.
 Spin components of T(2) and E(2):
     alpha-alpha T2 =       0.5797121721D-01 E2=     -0.1487938743D+00
     alpha-beta  T2 =       0.2989104034D+00 E2=     -0.8153023546D+00
     beta-beta   T2 =       0.5797121721D-01 E2=     -0.1487938743D+00
 The integrals were generated   2 times.
 ANorm=    0.1189475867D+01
 E2 =    -0.1112890103D+01 EUMP2 =    -0.32362180194196D+03
 Leave Link  906 at Fri Dec  3 14:25:27 2021, MaxMem=  498073600 cpu:     216.7
 (Enter /apps/software//g09/l1002.exe)
 Minotr:  Closed shell wavefunction.
          Computing MP2/KS-MP2 derivatives.
          Using Z-Vector for PSCF gradient.
          Skipping F1 and S1 gradient terms here.
          Frozen-core window.
          Direct CPHF calculation.
          Differentiating once with respect to electric field.
                with respect to dipole field.
          Electric field/nuclear overlap derivatives assumed to be zero.
          Using symmetry in CPHF.
          Requested convergence is 1.0D-10 RMS, and 1.0D-09 maximum.
          NewPWx=F KeepS1=T KeepF1=T KeepIn=T MapXYZ=F SortEE=F KeepMc=T.
          MDV=     498073492 using IRadAn=       0.
          Keep R1 ints in memory in canonical form, NReq=290997708.
 Symmetry not used in FoFDir.
 MinBra= 0 MaxBra= 2 Meth= 1.
 IRaf=       0 NMat=   1 IRICut=       1 DoRegI=T DoRafI=F ISym2E= 0 JSym2E=0.
          Solving linear equations separately, MaxMat=       0.
          There are     1 degrees of freedom in the 1st order CPHF.  IDoFFX=0.
 LinEq1:  Iter=  0 NonCon=     1 RMS=3.67D-03 Max=7.17D-02
 AX will form     1 AO Fock derivatives at one time.
 LinEq1:  Iter=  1 NonCon=     1 RMS=9.57D-04 Max=1.77D-02
 LinEq1:  Iter=  2 NonCon=     1 RMS=3.93D-04 Max=1.13D-02
 LinEq1:  Iter=  3 NonCon=     1 RMS=2.49D-04 Max=6.66D-03
 LinEq1:  Iter=  4 NonCon=     1 RMS=9.65D-05 Max=1.85D-03
 LinEq1:  Iter=  5 NonCon=     1 RMS=3.20D-05 Max=6.88D-04
 LinEq1:  Iter=  6 NonCon=     1 RMS=8.89D-06 Max=1.53D-04
 LinEq1:  Iter=  7 NonCon=     1 RMS=2.91D-06 Max=8.27D-05
 LinEq1:  Iter=  8 NonCon=     1 RMS=1.20D-06 Max=2.76D-05
 LinEq1:  Iter=  9 NonCon=     1 RMS=5.05D-07 Max=1.12D-05
 LinEq1:  Iter= 10 NonCon=     1 RMS=1.02D-07 Max=1.93D-06
 LinEq1:  Iter= 11 NonCon=     1 RMS=2.49D-08 Max=2.85D-07
 LinEq1:  Iter= 12 NonCon=     1 RMS=8.86D-09 Max=2.29D-07
 LinEq1:  Iter= 13 NonCon=     1 RMS=1.69D-09 Max=1.67D-08
 LinEq1:  Iter= 14 NonCon=     1 RMS=4.94D-10 Max=6.36D-09
 LinEq1:  Iter= 15 NonCon=     1 RMS=1.32D-10 Max=1.37D-09
 LinEq1:  Iter= 16 NonCon=     0 RMS=2.03D-11 Max=3.11D-10
 Linear equations converged to 1.000D-10 1.000D-09 after    16 iterations.
 End of Minotr Frequency-dependent properties file   721 does not exist.
 End of Minotr Frequency-dependent properties file   722 does not exist.
 Leave Link 1002 at Fri Dec  3 14:25:52 2021, MaxMem=  498073600 cpu:     146.7
 (Enter /apps/software//g09/l601.exe)
 Copying SCF densities to generalized density rwf, IOpCl= 0 IROHF=0.

 **********************************************************************

            Population analysis using the MP2 density.

 **********************************************************************

 Orbital symmetries:
       Occupied  (A') (A') (A') (A') (A') (A') (A') (A') (A') (A')
                 (A') (A') (A') (A') (A') (A') (A') (A') (A') (A')
                 (A") (A') (A') (A") (A') (A") (A")
       Virtual   (A') (A') (A') (A") (A') (A') (A") (A") (A') (A')
                 (A') (A") (A") (A') (A') (A') (A') (A") (A') (A')
                 (A') (A") (A') (A") (A') (A") (A') (A') (A') (A")
                 (A') (A') (A') (A') (A') (A') (A') (A') (A") (A')
                 (A') (A') (A") (A') (A') (A') (A') (A') (A') (A')
                 (A') (A') (A') (A') (A') (A') (A") (A') (A') (A")
                 (A") (A") (A') (A") (A') (A') (A") (A') (A") (A')
                 (A') (A') (A') (A') (A') (A') (A') (A') (A') (A')
                 (A') (A') (A') (A') (A") (A') (A") (A") (A') (A')
                 (A') (A") (A") (A") (A') (A") (A') (A") (A') (A')
                 (A') (A') (A') (A") (A") (A") (A') (A') (A') (A')
                 (A') (A") (A') (A") (A") (A') (A') (A') (A") (A")
                 (A') (A') (A') (A') (A") (A") (A') (A') (A") (A')
                 (A") (A") (A') (A') (A') (A') (A') (A') (A') (A")
                 (A') (A') (A') (A') (A') (A") (A') (A') (A") (A")
                 (A') (A") (A") (A') (A') (A") (A') (A") (A') (A')
                 (A') (A') (A') (A') (A') (A') (A') (A') (A') (A")
                 (A') (A') (A') (A') (A') (A') (A') (A') (A') (A')
                 (A') (A') (A') (A')
 The electronic state is 1-A'.
 Alpha  occ. eigenvalues --  -15.57665 -11.29480 -11.28066 -11.27547 -11.27542
 Alpha  occ. eigenvalues --  -11.27038 -11.26499 -11.26485  -1.23040  -1.18569
 Alpha  occ. eigenvalues --   -1.06548  -1.05003  -0.89047  -0.86122  -0.76822
 Alpha  occ. eigenvalues --   -0.70205  -0.66360  -0.63937  -0.62098  -0.56782
 Alpha  occ. eigenvalues --   -0.55489  -0.53789  -0.53230  -0.48402  -0.47052
 Alpha  occ. eigenvalues --   -0.36723  -0.35964
 Alpha virt. eigenvalues --    0.03082   0.04194   0.04879   0.06246   0.06550
 Alpha virt. eigenvalues --    0.07061   0.08675   0.10107   0.10976   0.12273
 Alpha virt. eigenvalues --    0.12592   0.13822   0.13955   0.14890   0.16547
 Alpha virt. eigenvalues --    0.17066   0.17233   0.17454   0.17736   0.18178
 Alpha virt. eigenvalues --    0.19046   0.20159   0.20426   0.20562   0.21069
 Alpha virt. eigenvalues --    0.21556   0.21629   0.23467   0.24779   0.24921
 Alpha virt. eigenvalues --    0.25198   0.27765   0.29102   0.29766   0.30101
 Alpha virt. eigenvalues --    0.31527   0.32364   0.32686   0.33117   0.35831
 Alpha virt. eigenvalues --    0.37129   0.37767   0.37944   0.39244   0.39560
 Alpha virt. eigenvalues --    0.41813   0.42965   0.45107   0.48089   0.48452
 Alpha virt. eigenvalues --    0.52148   0.54193   0.59672   0.66376   0.69565
 Alpha virt. eigenvalues --    0.70047   0.70234   0.70886   0.71828   0.72250
 Alpha virt. eigenvalues --    0.73157   0.77828   0.78505   0.79309   0.81036
 Alpha virt. eigenvalues --    0.81541   0.82808   0.85215   0.87019   0.88554
 Alpha virt. eigenvalues --    0.91825   0.92651   0.94202   0.98064   0.98471
 Alpha virt. eigenvalues --    1.00908   1.02437   1.02969   1.05977   1.07651
 Alpha virt. eigenvalues --    1.09513   1.09961   1.10970   1.11125   1.12624
 Alpha virt. eigenvalues --    1.19522   1.20096   1.20324   1.20785   1.22292
 Alpha virt. eigenvalues --    1.22435   1.29234   1.32128   1.34276   1.37452
 Alpha virt. eigenvalues --    1.38513   1.50845   1.52908   1.56169   1.65195
 Alpha virt. eigenvalues --    1.69875   1.74386   1.74987   1.78233   1.81090
 Alpha virt. eigenvalues --    1.81623   1.84692   1.86915   1.89557   1.89562
 Alpha virt. eigenvalues --    1.91750   1.97636   1.99949   2.02714   2.03497
 Alpha virt. eigenvalues --    2.04381   2.08731   2.15911   2.20225   2.20388
 Alpha virt. eigenvalues --    2.20474   2.22116   2.22841   2.30736   2.32320
 Alpha virt. eigenvalues --    2.34903   2.35740   2.39011   2.41343   2.43464
 Alpha virt. eigenvalues --    2.57872   2.64218   2.66429   2.72293   2.76897
 Alpha virt. eigenvalues --    2.80240   2.81575   2.93185   2.94831   2.98433
 Alpha virt. eigenvalues --    2.98741   2.99147   3.00669   3.02130   3.05317
 Alpha virt. eigenvalues --    3.05736   3.10748   3.10787   3.16417   3.21465
 Alpha virt. eigenvalues --    3.22321   3.24387   3.26655   3.27913   3.33933
 Alpha virt. eigenvalues --    3.36091   3.45495   3.45927   3.46626   3.57269
 Alpha virt. eigenvalues --    3.63056   3.74332   3.78325   3.88482   3.91202
 Alpha virt. eigenvalues --    3.98582   4.02445   4.37950   4.40442   4.46650
 Alpha virt. eigenvalues --    4.48125   4.52642   4.54816   4.58728   5.10448
 Alpha virt. eigenvalues --    5.24398  24.72039  25.07969  25.09288  25.19522
 Alpha virt. eigenvalues --   25.23534  25.32804  25.61191  37.31486
          Condensed to atoms (all electrons):
              1          2          3          4          5          6
     1  C   11.351936  -6.232205   5.957492  -3.943860   4.073691  -4.152984
     2  C   -6.232205  16.649902  -8.453228   4.388041  -3.947124   3.996585
     3  C    5.957492  -8.453228  25.360955  -8.442794   5.953134  -4.372500
     4  C   -3.943860   4.388041  -8.442794  16.639166  -6.225281   3.994177
     5  C    4.073691  -3.947124   5.953134  -6.225281  11.350384  -4.152268
     6  C   -4.152984   3.996585  -4.372500   3.994177  -4.152268  10.309781
     7  C   -1.518337  -0.083263 -13.381861  -0.092710  -1.516170   0.649007
     8  H   -0.069471   0.205341  -0.201534   0.619646  -0.241200   0.091525
     9  H    0.079207  -0.059782   0.115859  -0.205854   0.560055  -0.198078
    10  H   -0.162952   0.087344  -0.045733   0.087360  -0.162929   0.508755
    11  H    0.560037  -0.205871   0.115851  -0.059721   0.079184  -0.198028
    12  H   -0.241001   0.619516  -0.201692   0.205112  -0.069407   0.091464
    13  N    0.032294   0.058091   0.887852   0.058760   0.032235  -0.003284
              7          8          9         10         11         12
     1  C   -1.518337  -0.069471   0.079207  -0.162952   0.560037  -0.241001
     2  C   -0.083263   0.205341  -0.059782   0.087344  -0.205871   0.619516
     3  C  -13.381861  -0.201534   0.115859  -0.045733   0.115851  -0.201692
     4  C   -0.092710   0.619646  -0.205854   0.087360  -0.059721   0.205112
     5  C   -1.516170  -0.241200   0.560055  -0.162929   0.079184  -0.069407
     6  C    0.649007   0.091525  -0.198078   0.508755  -0.198028   0.091464
     7  C   24.797187  -0.138392  -0.015931  -0.023642  -0.015988  -0.137958
     8  H   -0.138392   0.549778  -0.019253   0.001686   0.000694   0.001575
     9  H   -0.015931  -0.019253   0.547574  -0.013449  -0.000307   0.000693
    10  H   -0.023642   0.001686  -0.013449   0.542115  -0.013448   0.001683
    11  H   -0.015988   0.000694  -0.000307  -0.013448   0.547572  -0.019246
    12  H   -0.137958   0.001575   0.000693   0.001683  -0.019246   0.549752
    13  N   -1.102499   0.010263   0.000519   0.000762   0.000520   0.010233
             13
     1  C    0.032294
     2  C    0.058091
     3  C    0.887852
     4  C    0.058760
     5  C    0.032235
     6  C   -0.003284
     7  C   -1.102499
     8  H    0.010263
     9  H    0.000519
    10  H    0.000762
    11  H    0.000520
    12  H    0.010233
    13  N    7.213881
 Mulliken atomic charges:
              1
     1  C    0.266151
     2  C   -1.023348
     3  C    2.708198
     4  C   -1.022042
     5  C    0.265698
     6  C   -0.564153
     7  C   -1.419444
     8  H    0.189343
     9  H    0.208747
    10  H    0.192447
    11  H    0.208752
    12  H    0.189278
    13  N   -0.199627
 Sum of Mulliken atomic charges =   0.00000
 Mulliken charges with hydrogens summed into heavy atoms:
              1
     1  C    0.474903
     2  C   -0.834070
     3  C    2.708198
     4  C   -0.832699
     5  C    0.474444
     6  C   -0.371705
     7  C   -1.419444
    13  N   -0.199627
 Sum of Mulliken charges with hydrogens summed into heavy atoms =   0.00000
 Electronic spatial extent (au):  <R**2>=            918.7349
 Charge=              0.0000 electrons
 Dipole moment (field-independent basis, Debye):
    X=              0.0021    Y=             -4.4297    Z=              0.0000  Tot=              4.4297
 Quadrupole moment (field-independent basis, Debye-Ang):
   XX=            -40.3758   YY=            -56.9224   ZZ=            -50.0007
   XY=              0.0078   XZ=              0.0000   YZ=              0.0000
 Traceless Quadrupole moment (field-independent basis, Debye-Ang):
   XX=              8.7238   YY=             -7.8228   ZZ=             -0.9011
   XY=              0.0078   XZ=              0.0000   YZ=              0.0000
 Octapole moment (field-independent basis, Debye-Ang**2):
  XXX=              0.0042  YYY=            -73.5332  ZZZ=              0.0000  XYY=              0.0296
  XXY=             -3.9930  XXZ=              0.0000  XZZ=             -0.0015  YZZ=              3.4840
  YYZ=              0.0000  XYZ=              0.0000
 Hexadecapole moment (field-independent basis, Debye-Ang**3):
 XXXX=           -277.6339 YYYY=          -1102.8551 ZZZZ=            -58.7319 XXXY=              0.1178
 XXXZ=              0.0000 YYYX=              0.2230 YYYZ=              0.0000 ZZZX=              0.0000
 ZZZY=              0.0000 XXYY=           -192.8541 XXZZ=            -68.0241 YYZZ=           -173.5460
 XXYZ=              0.0000 YYXZ=              0.0000 ZZXY=              0.0416
 N-N= 2.998260713257D+02 E-N=-1.352073800661D+03  KE= 3.235624576537D+02
 Symmetry A'   KE= 3.141225945181D+02
 Symmetry A"   KE= 9.439863135591D+00
 No NMR shielding tensors so no spin-rotation constants.
 Leave Link  601 at Fri Dec  3 14:25:52 2021, MaxMem=  498073600 cpu:       2.0
 (Enter /apps/software//g09/l9999.exe)
 1\1\GINC-DLT06\SP\RMP2-FC\6-311++G(d,p)\C7H5N1\ITAMAR\03-Dec-2021\0\\#
 P MP2/6-311++G** DENSITY=MP2\\X=CN\\0,1\C,0,1.209094,-1.480487,0.\C,0,
 1.215157,-0.090122,0.\C,0,0.,0.610344,0.\C,0,-1.214876,-0.090665,0.\C,
 0,-1.208191,-1.481008,0.\C,0,0.000613,-2.176651,0.\C,0,-0.00045,2.0425
 15,0.\H,0,-2.14877,0.457518,0.\H,0,-2.147125,-2.021842,0.\H,0,0.000834
 ,-3.260477,0.\H,0,2.148279,-2.020884,0.\H,0,2.148829,0.458443,0.\N,0,-
 0.001446,3.197669,0.\\Version=EM64L-G09RevA.02\State=1-A'\HF=-322.5089
 118\MP2=-323.6218019\RMSD=9.579e-09\Dipole=0.0008375,-1.7427816,0.\Qua
 drupole=6.4859628,-5.8160448,-0.6699181,0.0057879,0.,0.\PG=CS [SG(C7H5
 N1)]\\@


 IF YOU WANT TO LEARN FROM THE THEORETICAL PHYSICISTS ABOUT THE
 METHODS WHICH THEY USE, I ADVISE YOU TO FOLLOW THIS PRINCIPLE VERY STRICTLY:
 DON'T LISTEN TO THEIR WORDS; PAY ATTENTION, INSTEAD, TO THEIR ACTIONS.
 -- A.EINSTEIN, 1934
 Job cpu time:  0 days  0 hours  8 minutes 44.5 seconds.
 File lengths (MBytes):  RWF=     22 Int=      0 D2E=      0 Chk=      5 Scr=      1
 Normal termination of Gaussian 09 at Fri Dec  3 14:25:52 2021.
