Chair-15                                                                
SP        RMP2-FC                                                     6-311++G(d,p)       
Number of atoms                            I               12
Info1-9                                    I   N=           9
          19          19           0           0           0         110
           1           2           1
Full Title                                 C   N=           1
Chair-15    
Route                                      C   N=           3
#P MP2/6-311++G** nosymm Density=MP2
Charge                                     I                0
Multiplicity                               I                1
Number of electrons                        I               42
Number of alpha electrons                  I               21
Number of beta electrons                   I               21
Number of basis functions                  I              174
Number of independent functions            I              174
Number of point charges in /Mol/           I                0
Number of translation vectors              I                0
Atomic numbers                             I   N=          12
           6           6           6           6           6           6
           1           1           1           1           1           1
Nuclear charges                            R   N=          12
  6.00000000E+00  6.00000000E+00  6.00000000E+00  6.00000000E+00  6.00000000E+00
  6.00000000E+00  1.00000000E+00  1.00000000E+00  1.00000000E+00  1.00000000E+00
  1.00000000E+00  1.00000000E+00
Current cartesian coordinates              R   N=          36
  2.61444172E+00  0.00000000E+00  1.14686723E-01  1.31590003E+00  2.28654610E+00
 -1.14686723E-01 -1.31590003E+00  2.28654610E+00  1.14686723E-01 -2.61444172E+00
  0.00000000E+00 -1.14686723E-01 -1.31590003E+00 -2.28654610E+00  1.14686723E-01
  1.31590003E+00 -2.28654610E+00 -1.14686723E-01  4.66550870E+00  0.00000000E+00
  9.43785729E-02  2.35065480E+00  4.05599887E+00 -9.07129011E-02 -2.35065480E+00
  4.05599887E+00  9.07129011E-02 -4.66550870E+00  0.00000000E+00 -9.43785729E-02
 -2.35065480E+00 -4.05599887E+00  9.07129011E-02  2.35065480E+00 -4.05599887E+00
 -9.07129011E-02
Number of symbols in /Mol/                 I                0
Force Field                                I                0
Atom Types                                 C   N=          12
                                                            
                                                            
                        
Int Atom Types                             I   N=          12
           0           0           0           0           0           0
           0           0           0           0           0           0
MM charges                                 R   N=          12
  0.00000000E+00  0.00000000E+00  0.00000000E+00  0.00000000E+00  0.00000000E+00
  0.00000000E+00  0.00000000E+00  0.00000000E+00  0.00000000E+00  0.00000000E+00
  0.00000000E+00  0.00000000E+00
Integer atomic weights                     I   N=          12
          12          12          12          12          12          12
           1           1           1           1           1           1
Real atomic weights                        R   N=          12
  1.20000000E+01  1.20000000E+01  1.20000000E+01  1.20000000E+01  1.20000000E+01
  1.20000000E+01  1.00782504E+00  1.00782504E+00  1.00782504E+00  1.00782504E+00
  1.00782504E+00  1.00782504E+00
Atom fragment info                         I   N=          12
           0           0           0           0           0           0
           0           0           0           0           0           0
Atom residue num                           I   N=          12
           0           0           0           0           0           0
           0           0           0           0           0           0
Nuclear spins                              I   N=          12
           0           0           0           0           0           0
           1           1           1           1           1           1
Nuclear ZEff                               R   N=          12
 -3.60000000E+00 -3.60000000E+00 -3.60000000E+00 -3.60000000E+00 -3.60000000E+00
 -3.60000000E+00 -1.00000000E+00 -1.00000000E+00 -1.00000000E+00 -1.00000000E+00
 -1.00000000E+00 -1.00000000E+00
Nuclear ZNuc                               R   N=          12
  6.00000000E+00  6.00000000E+00  6.00000000E+00  6.00000000E+00  6.00000000E+00
  6.00000000E+00  1.00000000E+00  1.00000000E+00  1.00000000E+00  1.00000000E+00
  1.00000000E+00  1.00000000E+00
Nuclear QMom                               R   N=          12
  0.00000000E+00  0.00000000E+00  0.00000000E+00  0.00000000E+00  0.00000000E+00
  0.00000000E+00  0.00000000E+00  0.00000000E+00  0.00000000E+00  0.00000000E+00
  0.00000000E+00  0.00000000E+00
Nuclear GFac                               R   N=          12
  0.00000000E+00  0.00000000E+00  0.00000000E+00  0.00000000E+00  0.00000000E+00
  0.00000000E+00  2.79284600E+00  2.79284600E+00  2.79284600E+00  2.79284600E+00
  2.79284600E+00  2.79284600E+00
MicOpt                                     I   N=          12
          -1          -1          -1          -1          -1          -1
          -1          -1          -1          -1          -1          -1
Number of residues                         I                0
Number of secondary structures             I                0
Number of contracted shells                I               66
Number of primitive shells                 I              120
Pure/Cartesian d shells                    I                0
Pure/Cartesian f shells                    I                0
Highest angular momentum                   I                2
Largest degree of contraction              I                6
Shell types                                I   N=          66
           0          -1          -1          -1          -1          -2
           0          -1          -1          -1          -1          -2
           0          -1          -1          -1          -1          -2
           0          -1          -1          -1          -1          -2
           0          -1          -1          -1          -1          -2
           0          -1          -1          -1          -1          -2
           0           0           0           0           1           0
           0           0           0           1           0           0
           0           0           1           0           0           0
           0           1           0           0           0           0
           1           0           0           0           0           1
Number of primitives per shell             I   N=          66
           6           3           1           1           1           1
           6           3           1           1           1           1
           6           3           1           1           1           1
           6           3           1           1           1           1
           6           3           1           1           1           1
           6           3           1           1           1           1
           3           1           1           1           1           3
           1           1           1           1           3           1
           1           1           1           3           1           1
           1           1           3           1           1           1
           1           3           1           1           1           1
Shell to atom map                          I   N=          66
           1           1           1           1           1           1
           2           2           2           2           2           2
           3           3           3           3           3           3
           4           4           4           4           4           4
           5           5           5           5           5           5
           6           6           6           6           6           6
           7           7           7           7           7           8
           8           8           8           8           9           9
           9           9           9          10          10          10
          10          10          11          11          11          11
          11          12          12          12          12          12
Primitive exponents                        R   N=         120
  4.56324000E+03  6.82024000E+02  1.54973000E+02  4.44553000E+01  1.30290000E+01
  1.82773000E+00  2.09642000E+01  4.80331000E+00  1.45933000E+00  4.83456000E-01
  1.45585000E-01  4.38000000E-02  6.26000000E-01  4.56324000E+03  6.82024000E+02
  1.54973000E+02  4.44553000E+01  1.30290000E+01  1.82773000E+00  2.09642000E+01
  4.80331000E+00  1.45933000E+00  4.83456000E-01  1.45585000E-01  4.38000000E-02
  6.26000000E-01  4.56324000E+03  6.82024000E+02  1.54973000E+02  4.44553000E+01
  1.30290000E+01  1.82773000E+00  2.09642000E+01  4.80331000E+00  1.45933000E+00
  4.83456000E-01  1.45585000E-01  4.38000000E-02  6.26000000E-01  4.56324000E+03
  6.82024000E+02  1.54973000E+02  4.44553000E+01  1.30290000E+01  1.82773000E+00
  2.09642000E+01  4.80331000E+00  1.45933000E+00  4.83456000E-01  1.45585000E-01
  4.38000000E-02  6.26000000E-01  4.56324000E+03  6.82024000E+02  1.54973000E+02
  4.44553000E+01  1.30290000E+01  1.82773000E+00  2.09642000E+01  4.80331000E+00
  1.45933000E+00  4.83456000E-01  1.45585000E-01  4.38000000E-02  6.26000000E-01
  4.56324000E+03  6.82024000E+02  1.54973000E+02  4.44553000E+01  1.30290000E+01
  1.82773000E+00  2.09642000E+01  4.80331000E+00  1.45933000E+00  4.83456000E-01
  1.45585000E-01  4.38000000E-02  6.26000000E-01  3.38650000E+01  5.09479000E+00
  1.15879000E+00  3.25840000E-01  1.02741000E-01  3.60000000E-02  7.50000000E-01
  3.38650000E+01  5.09479000E+00  1.15879000E+00  3.25840000E-01  1.02741000E-01
  3.60000000E-02  7.50000000E-01  3.38650000E+01  5.09479000E+00  1.15879000E+00
  3.25840000E-01  1.02741000E-01  3.60000000E-02  7.50000000E-01  3.38650000E+01
  5.09479000E+00  1.15879000E+00  3.25840000E-01  1.02741000E-01  3.60000000E-02
  7.50000000E-01  3.38650000E+01  5.09479000E+00  1.15879000E+00  3.25840000E-01
  1.02741000E-01  3.60000000E-02  7.50000000E-01  3.38650000E+01  5.09479000E+00
  1.15879000E+00  3.25840000E-01  1.02741000E-01  3.60000000E-02  7.50000000E-01
Contraction coefficients                   R   N=         120
  1.96665025E-03  1.52306019E-02  7.61269097E-02  2.60801033E-01  6.16462078E-01
  2.21006028E-01  1.14660081E-01  9.19999648E-01 -3.03068213E-03  1.00000000E+00
  1.00000000E+00  1.00000000E+00  1.00000000E+00  1.96665025E-03  1.52306019E-02
  7.61269097E-02  2.60801033E-01  6.16462078E-01  2.21006028E-01  1.14660081E-01
  9.19999648E-01 -3.03068213E-03  1.00000000E+00  1.00000000E+00  1.00000000E+00
  1.00000000E+00  1.96665025E-03  1.52306019E-02  7.61269097E-02  2.60801033E-01
  6.16462078E-01  2.21006028E-01  1.14660081E-01  9.19999648E-01 -3.03068213E-03
  1.00000000E+00  1.00000000E+00  1.00000000E+00  1.00000000E+00  1.96665025E-03
  1.52306019E-02  7.61269097E-02  2.60801033E-01  6.16462078E-01  2.21006028E-01
  1.14660081E-01  9.19999648E-01 -3.03068213E-03  1.00000000E+00  1.00000000E+00
  1.00000000E+00  1.00000000E+00  1.96665025E-03  1.52306019E-02  7.61269097E-02
  2.60801033E-01  6.16462078E-01  2.21006028E-01  1.14660081E-01  9.19999648E-01
 -3.03068213E-03  1.00000000E+00  1.00000000E+00  1.00000000E+00  1.00000000E+00
  1.96665025E-03  1.52306019E-02  7.61269097E-02  2.60801033E-01  6.16462078E-01
  2.21006028E-01  1.14660081E-01  9.19999648E-01 -3.03068213E-03  1.00000000E+00
  1.00000000E+00  1.00000000E+00  1.00000000E+00  2.54938145E-02  1.90373109E-01
  8.52161486E-01  1.00000000E+00  1.00000000E+00  1.00000000E+00  1.00000000E+00
  2.54938145E-02  1.90373109E-01  8.52161486E-01  1.00000000E+00  1.00000000E+00
  1.00000000E+00  1.00000000E+00  2.54938145E-02  1.90373109E-01  8.52161486E-01
  1.00000000E+00  1.00000000E+00  1.00000000E+00  1.00000000E+00  2.54938145E-02
  1.90373109E-01  8.52161486E-01  1.00000000E+00  1.00000000E+00  1.00000000E+00
  1.00000000E+00  2.54938145E-02  1.90373109E-01  8.52161486E-01  1.00000000E+00
  1.00000000E+00  1.00000000E+00  1.00000000E+00  2.54938145E-02  1.90373109E-01
  8.52161486E-01  1.00000000E+00  1.00000000E+00  1.00000000E+00  1.00000000E+00
P(S=P) Contraction coefficients            R   N=         120
  0.00000000E+00  0.00000000E+00  0.00000000E+00  0.00000000E+00  0.00000000E+00
  0.00000000E+00  4.02486927E-02  2.37593957E-01  8.15853851E-01  1.00000000E+00
  1.00000000E+00  1.00000000E+00  0.00000000E+00  0.00000000E+00  0.00000000E+00
  0.00000000E+00  0.00000000E+00  0.00000000E+00  0.00000000E+00  4.02486927E-02
  2.37593957E-01  8.15853851E-01  1.00000000E+00  1.00000000E+00  1.00000000E+00
  0.00000000E+00  0.00000000E+00  0.00000000E+00  0.00000000E+00  0.00000000E+00
  0.00000000E+00  0.00000000E+00  4.02486927E-02  2.37593957E-01  8.15853851E-01
  1.00000000E+00  1.00000000E+00  1.00000000E+00  0.00000000E+00  0.00000000E+00
  0.00000000E+00  0.00000000E+00  0.00000000E+00  0.00000000E+00  0.00000000E+00
  4.02486927E-02  2.37593957E-01  8.15853851E-01  1.00000000E+00  1.00000000E+00
  1.00000000E+00  0.00000000E+00  0.00000000E+00  0.00000000E+00  0.00000000E+00
  0.00000000E+00  0.00000000E+00  0.00000000E+00  4.02486927E-02  2.37593957E-01
  8.15853851E-01  1.00000000E+00  1.00000000E+00  1.00000000E+00  0.00000000E+00
  0.00000000E+00  0.00000000E+00  0.00000000E+00  0.00000000E+00  0.00000000E+00
  0.00000000E+00  4.02486927E-02  2.37593957E-01  8.15853851E-01  1.00000000E+00
  1.00000000E+00  1.00000000E+00  0.00000000E+00  0.00000000E+00  0.00000000E+00
  0.00000000E+00  0.00000000E+00  0.00000000E+00  0.00000000E+00  0.00000000E+00
  0.00000000E+00  0.00000000E+00  0.00000000E+00  0.00000000E+00  0.00000000E+00
  0.00000000E+00  0.00000000E+00  0.00000000E+00  0.00000000E+00  0.00000000E+00
  0.00000000E+00  0.00000000E+00  0.00000000E+00  0.00000000E+00  0.00000000E+00
  0.00000000E+00  0.00000000E+00  0.00000000E+00  0.00000000E+00  0.00000000E+00
  0.00000000E+00  0.00000000E+00  0.00000000E+00  0.00000000E+00  0.00000000E+00
  0.00000000E+00  0.00000000E+00  0.00000000E+00  0.00000000E+00  0.00000000E+00
  0.00000000E+00  0.00000000E+00  0.00000000E+00  0.00000000E+00  0.00000000E+00
Coordinates of each shell                  R   N=         198
  2.61444172E+00  0.00000000E+00  1.14686723E-01  2.61444172E+00  0.00000000E+00
  1.14686723E-01  2.61444172E+00  0.00000000E+00  1.14686723E-01  2.61444172E+00
  0.00000000E+00  1.14686723E-01  2.61444172E+00  0.00000000E+00  1.14686723E-01
  2.61444172E+00  0.00000000E+00  1.14686723E-01  1.31590003E+00  2.28654610E+00
 -1.14686723E-01  1.31590003E+00  2.28654610E+00 -1.14686723E-01  1.31590003E+00
  2.28654610E+00 -1.14686723E-01  1.31590003E+00  2.28654610E+00 -1.14686723E-01
  1.31590003E+00  2.28654610E+00 -1.14686723E-01  1.31590003E+00  2.28654610E+00
 -1.14686723E-01 -1.31590003E+00  2.28654610E+00  1.14686723E-01 -1.31590003E+00
  2.28654610E+00  1.14686723E-01 -1.31590003E+00  2.28654610E+00  1.14686723E-01
 -1.31590003E+00  2.28654610E+00  1.14686723E-01 -1.31590003E+00  2.28654610E+00
  1.14686723E-01 -1.31590003E+00  2.28654610E+00  1.14686723E-01 -2.61444172E+00
  0.00000000E+00 -1.14686723E-01 -2.61444172E+00  0.00000000E+00 -1.14686723E-01
 -2.61444172E+00  0.00000000E+00 -1.14686723E-01 -2.61444172E+00  0.00000000E+00
 -1.14686723E-01 -2.61444172E+00  0.00000000E+00 -1.14686723E-01 -2.61444172E+00
  0.00000000E+00 -1.14686723E-01 -1.31590003E+00 -2.28654610E+00  1.14686723E-01
 -1.31590003E+00 -2.28654610E+00  1.14686723E-01 -1.31590003E+00 -2.28654610E+00
  1.14686723E-01 -1.31590003E+00 -2.28654610E+00  1.14686723E-01 -1.31590003E+00
 -2.28654610E+00  1.14686723E-01 -1.31590003E+00 -2.28654610E+00  1.14686723E-01
  1.31590003E+00 -2.28654610E+00 -1.14686723E-01  1.31590003E+00 -2.28654610E+00
 -1.14686723E-01  1.31590003E+00 -2.28654610E+00 -1.14686723E-01  1.31590003E+00
 -2.28654610E+00 -1.14686723E-01  1.31590003E+00 -2.28654610E+00 -1.14686723E-01
  1.31590003E+00 -2.28654610E+00 -1.14686723E-01  4.66550870E+00  0.00000000E+00
  9.43785729E-02  4.66550870E+00  0.00000000E+00  9.43785729E-02  4.66550870E+00
  0.00000000E+00  9.43785729E-02  4.66550870E+00  0.00000000E+00  9.43785729E-02
  4.66550870E+00  0.00000000E+00  9.43785729E-02  2.35065480E+00  4.05599887E+00
 -9.07129011E-02  2.35065480E+00  4.05599887E+00 -9.07129011E-02  2.35065480E+00
  4.05599887E+00 -9.07129011E-02  2.35065480E+00  4.05599887E+00 -9.07129011E-02
  2.35065480E+00  4.05599887E+00 -9.07129011E-02 -2.35065480E+00  4.05599887E+00
  9.07129011E-02 -2.35065480E+00  4.05599887E+00  9.07129011E-02 -2.35065480E+00
  4.05599887E+00  9.07129011E-02 -2.35065480E+00  4.05599887E+00  9.07129011E-02
 -2.35065480E+00  4.05599887E+00  9.07129011E-02 -4.66550870E+00  0.00000000E+00
 -9.43785729E-02 -4.66550870E+00  0.00000000E+00 -9.43785729E-02 -4.66550870E+00
  0.00000000E+00 -9.43785729E-02 -4.66550870E+00  0.00000000E+00 -9.43785729E-02
 -4.66550870E+00  0.00000000E+00 -9.43785729E-02 -2.35065480E+00 -4.05599887E+00
  9.07129011E-02 -2.35065480E+00 -4.05599887E+00  9.07129011E-02 -2.35065480E+00
 -4.05599887E+00  9.07129011E-02 -2.35065480E+00 -4.05599887E+00  9.07129011E-02
 -2.35065480E+00 -4.05599887E+00  9.07129011E-02  2.35065480E+00 -4.05599887E+00
 -9.07129011E-02  2.35065480E+00 -4.05599887E+00 -9.07129011E-02  2.35065480E+00
 -4.05599887E+00 -9.07129011E-02  2.35065480E+00 -4.05599887E+00 -9.07129011E-02
  2.35065480E+00 -4.05599887E+00 -9.07129011E-02
Num ILSW                                   I              100
ILSW                                       I   N=         100
           0           0           0           0           2           0
           0           0           0           0           0          -1
           5           0           0           0           0           0
           0           0           0           0           0           0
           1           1           0           0           0           0
           0           0      100000           0          -1           0
           0           0           0           0           0           0
           0           0           0           1           0           0
           0 -2000000000           1           0           0           0
           0           0           4          52           0           0
           0           0           0           0           0           0
           0           0           0          12           0           1
           0           0           0           0           0           0
           0           0           0           0           0           0
           0           0           0           0           0           0
           0           0           0           0           0           0
           0           0           0           0
Num RLSW                                   I               52
RLSW                                       R   N=          52
  1.00000000E+00  1.00000000E+00  1.00000000E+00  1.00000000E+00  1.00000000E+00
  0.00000000E+00  0.00000000E+00  1.00000000E+00  0.00000000E+00  0.00000000E+00
  0.00000000E+00  0.00000000E+00  1.00000000E+00  0.00000000E+00  0.00000000E+00
  0.00000000E+00  0.00000000E+00  1.00000000E+00  0.00000000E+00  0.00000000E+00
  0.00000000E+00  0.00000000E+00  1.00000000E+00  0.00000000E+00  0.00000000E+00
  0.00000000E+00  0.00000000E+00  1.00000000E+00  0.00000000E+00  0.00000000E+00
  0.00000000E+00  0.00000000E+00  1.00000000E+00  0.00000000E+00  0.00000000E+00
  0.00000000E+00  0.00000000E+00  0.00000000E+00  1.00000000E+00  1.00000000E+00
  0.00000000E+00  1.00000000E+00  0.00000000E+00  0.00000000E+00  0.00000000E+00
  0.00000000E+00  0.00000000E+00  0.00000000E+00  0.00000000E+00  0.00000000E+00
  0.00000000E+00  0.00000000E+00
MxBond                                     I                3
NBond                                      I   N=          12
           3           3           3           3           3           3
           1           1           1           1           1           1
IBond                                      I   N=          36
           2           6           7           1           3           8
           2           4           9           3           5          10
           4           6          11           1           5          12
           1           0           0           2           0           0
           3           0           0           4           0           0
           5           0           0           6           0           0
RBond                                      R   N=          36
  1.50000000E+00  1.50000000E+00  1.00000000E+00  1.50000000E+00  1.50000000E+00
  1.00000000E+00  1.50000000E+00  1.50000000E+00  1.00000000E+00  1.50000000E+00
  1.50000000E+00  1.00000000E+00  1.50000000E+00  1.50000000E+00  1.00000000E+00
  1.50000000E+00  1.50000000E+00  1.00000000E+00  1.00000000E+00  0.00000000E+00
  0.00000000E+00  1.00000000E+00  0.00000000E+00  0.00000000E+00  1.00000000E+00
  0.00000000E+00  0.00000000E+00  1.00000000E+00  0.00000000E+00  0.00000000E+00
  1.00000000E+00  0.00000000E+00  0.00000000E+00  1.00000000E+00  0.00000000E+00
  0.00000000E+00
Virial Ratio                               R      2.001296736773972E+00
SCF Energy                                 R     -2.307439008704425E+02
MP2 Energy                                 R     -2.315765215859786E+02
Total Energy                               R     -2.315765215859786E+02
Post-SCF wavefunction norm                 R      1.145041956688666E+00
RMS Density                                R      3.333788303009151E-09
Job Status                                 I                1
Nuclear derivative order                   I                0
External E-field                           R   N=          35
  0.00000000E+00  0.00000000E+00  0.00000000E+00  0.00000000E+00  0.00000000E+00
  0.00000000E+00  0.00000000E+00  0.00000000E+00  0.00000000E+00  0.00000000E+00
  0.00000000E+00  0.00000000E+00  0.00000000E+00  0.00000000E+00  0.00000000E+00
  0.00000000E+00  0.00000000E+00  0.00000000E+00  0.00000000E+00  0.00000000E+00
  0.00000000E+00  0.00000000E+00  0.00000000E+00  0.00000000E+00  0.00000000E+00
  0.00000000E+00  0.00000000E+00  0.00000000E+00  0.00000000E+00  0.00000000E+00
  0.00000000E+00  0.00000000E+00  0.00000000E+00  0.00000000E+00  0.00000000E+00
IOpCl                                      I                0
IROHF                                      I                0
Alpha Orbital Energies                     R   N=         174
 -1.12399166E+01 -1.12395279E+01 -1.12391463E+01 -1.12383192E+01 -1.12378202E+01
 -1.12374385E+01 -1.15248023E+00 -1.01650981E+00 -1.01527895E+00 -8.24861186E-01
 -8.23173007E-01 -7.10262095E-01 -6.44784037E-01 -6.16868140E-01 -5.90368195E-01
 -5.87075515E-01 -5.01752196E-01 -4.97407475E-01 -4.93937504E-01 -3.35586895E-01
 -3.34841679E-01  4.20816572E-02  4.91034634E-02  4.91905071E-02  6.67117341E-02
  6.68137255E-02  9.87903489E-02  1.06487396E-01  1.07573515E-01  1.10863912E-01
  1.39743047E-01  1.50797781E-01  1.51065621E-01  1.62966848E-01  1.82091641E-01
  1.82562804E-01  1.84519104E-01  1.84594058E-01  1.91738208E-01  2.12784296E-01
  2.12979528E-01  2.13024117E-01  2.14301584E-01  2.14874830E-01  2.27435489E-01
  2.27853123E-01  2.30170353E-01  2.33405735E-01  2.51141802E-01  2.51254179E-01
  2.57511831E-01  2.89328953E-01  2.89610575E-01  3.31642581E-01  3.51840447E-01
  4.05440091E-01  4.07241110E-01  4.08052054E-01  4.27341552E-01  4.27572475E-01
  4.96196122E-01  4.96357419E-01  5.09571191E-01  5.11078249E-01  5.77044348E-01
  6.04830688E-01  6.12500986E-01  6.85723860E-01  7.27288622E-01  7.36113986E-01
  7.36788393E-01  7.45533599E-01  7.46094417E-01  7.63035902E-01  7.63327057E-01
  7.77853193E-01  8.14901527E-01  8.15226918E-01  8.15497158E-01  8.82901630E-01
  9.34685449E-01  9.36281984E-01  9.47960296E-01  9.50435116E-01  9.75208528E-01
  1.00673460E+00  1.00684768E+00  1.03569250E+00  1.03605936E+00  1.03684954E+00
  1.07527730E+00  1.11778988E+00  1.11882324E+00  1.13179984E+00  1.19572846E+00
  1.19871899E+00  1.30551364E+00  1.35014367E+00  1.35261454E+00  1.39160973E+00
  1.39399409E+00  1.54975943E+00  1.58496585E+00  1.71222075E+00  1.78309889E+00
  1.78980378E+00  1.80346753E+00  1.82740439E+00  1.84196172E+00  1.84231585E+00
  1.90310052E+00  1.90699878E+00  1.93382660E+00  1.93872398E+00  1.99534122E+00
  2.05052541E+00  2.05280376E+00  2.10142144E+00  2.10662518E+00  2.11220357E+00
  2.12894951E+00  2.19857119E+00  2.20488633E+00  2.27118781E+00  2.27551074E+00
  2.29814054E+00  2.36539499E+00  2.36771921E+00  2.37036994E+00  2.37205782E+00
  2.60975037E+00  2.61109665E+00  2.70306455E+00  2.75474734E+00  2.75653165E+00
  2.77760903E+00  2.81902829E+00  2.82274438E+00  2.95373595E+00  2.96022888E+00
  2.99345212E+00  2.99657895E+00  3.03098638E+00  3.03178417E+00  3.03572317E+00
  3.03664690E+00  3.09936071E+00  3.18217917E+00  3.18910566E+00  3.19134060E+00
  3.30819657E+00  3.30975608E+00  3.33311698E+00  3.33757875E+00  3.47269265E+00
  3.54028002E+00  3.77016364E+00  3.77044374E+00  3.89958384E+00  3.89988931E+00
  3.92615974E+00  3.95727611E+00  4.40902182E+00  4.41224484E+00  4.44317506E+00
  4.59439655E+00  4.59861734E+00  5.09636100E+00  2.47527549E+01  2.51252091E+01
  2.51269236E+01  2.52530371E+01  2.52566333E+01  2.53024237E+01
Alpha MO coefficients                      R   N=       30276
  1.77893091E-01  1.47274168E-01 -4.52894152E-05  5.04469443E-15 -2.50721928E-05
  1.65517174E-03 -1.81269891E-04  7.18800678E-15 -2.42632589E-05 -3.43856026E-04
 -4.72610708E-06  2.37547327E-14  1.12397766E-04 -6.80540559E-04  3.82345183E-05
 -1.23013357E-13 -4.59218648E-04 -7.24463087E-05  2.84382914E-06  1.62029671E-16
 -6.36372520E-05 -3.86389442E-15  2.51928789E-01  2.08600666E-01 -2.69764826E-05
 -6.96735508E-07  3.32179506E-05  2.17135649E-03 -1.16561483E-04 -1.65209677E-04
  2.78452665E-05 -4.27988215E-04  2.34734014E-05  3.16810848E-05 -1.11440288E-04
  2.00079232E-04 -1.50299080E-04 -2.84612391E-04  4.70162818E-04 -1.36105072E-04
 -1.69147537E-06 -6.34564031E-06  3.84140071E-05 -5.31394989E-05  2.51928789E-01
  2.08600666E-01  2.69764826E-05 -6.96735509E-07 -3.32179506E-05  2.17135649E-03
  1.16561483E-04 -1.65209677E-04 -2.78452666E-05 -4.27988214E-04 -2.34734012E-05
  3.16810847E-05  1.11440288E-04  2.00079214E-04  1.50299080E-04 -2.84612388E-04
 -4.70162818E-04 -1.36105072E-04 -1.69147537E-06  6.34564031E-06  3.84140071E-05
  5.31394989E-05  1.77893091E-01  1.47274168E-01  4.52894152E-05  7.33905482E-16
  2.50721928E-05  1.65517174E-03  1.81269891E-04  6.95346483E-15  2.42632589E-05
 -3.43856026E-04  4.72610679E-06 -9.14662731E-14 -1.12397766E-04 -6.80540540E-04
 -3.82345152E-05  6.36637180E-13  4.59218648E-04 -7.24463087E-05  2.84382913E-06
 -1.51226013E-16 -6.36372520E-05  2.20118502E-15  2.51928789E-01  2.08600666E-01
  2.69764826E-05  6.96735509E-07 -3.32179506E-05  2.17135649E-03  1.16561483E-04
  1.65209677E-04 -2.78452665E-05 -4.27988214E-04 -2.34734011E-05 -3.16810846E-05
  1.11440288E-04  2.00079213E-04  1.50299078E-04  2.84612389E-04 -4.70162818E-04
 -1.36105072E-04 -1.69147537E-06 -6.34564031E-06  3.84140071E-05 -5.31394989E-05
  2.51928789E-01  2.08600666E-01 -2.69764826E-05  6.96735514E-07  3.32179506E-05
  2.17135649E-03 -1.16561483E-04  1.65209677E-04  2.78452665E-05 -4.27988215E-04
  2.34734014E-05 -3.16810849E-05 -1.11440288E-04  2.00079234E-04 -1.50299081E-04
  2.84612391E-04  4.70162818E-04 -1.36105072E-04 -1.69147537E-06  6.34564031E-06
  3.84140071E-05  5.31394990E-05  1.36231595E-04  2.75694922E-05  1.50514820E-04
  2.00861322E-05 -3.75532384E-05 -8.69541986E-16 -6.81577382E-06  1.90139294E-04
 -4.96912102E-06  2.09327705E-04  1.53804803E-04 -1.95427915E-05 -2.95613765E-05
  7.52163870E-06  1.90139294E-04 -4.96912112E-06  2.09327706E-04  1.53804804E-04
  1.95427915E-05 -2.95613765E-05 -7.52163871E-06  1.36231595E-04  2.75694922E-05
  1.50514820E-04  2.00861320E-05  3.75532384E-05  4.83702193E-15  6.81577381E-06
  1.90139294E-04 -4.96912106E-06  2.09327706E-04  1.53804803E-04  1.95427915E-05
  2.95613765E-05 -7.52163871E-06  1.90139294E-04 -4.96912103E-06  2.09327705E-04
  1.53804804E-04 -1.95427915E-05  2.95613765E-05  7.52163870E-06 -8.40527801E-12
 -6.95734911E-12  8.60096925E-16  1.85481350E-04 -6.70737923E-17 -7.89061078E-14
  1.11181636E-14  1.46638275E-04  5.90523283E-15 -1.03061215E-13  1.51568725E-13
 -1.37784589E-04 -6.24815707E-15  1.12076438E-13 -3.08956309E-13  6.61992032E-04
  1.26330876E-13  3.54481859E-15 -1.25811257E-15  8.01157325E-06  6.06414484E-15
 -1.05090316E-04  2.81621951E-01  2.33213507E-01 -7.79114126E-05  4.53622968E-05
  4.11673204E-05  2.29335879E-03 -1.26783569E-04 -7.25660993E-05  5.97709489E-06
 -3.60965682E-04  5.10578444E-05 -4.75518175E-05  5.99484495E-06 -5.08163779E-04
 -7.68970808E-04 -6.66360347E-04 -7.76316095E-05 -1.65944599E-04 -6.17821084E-07
 -9.23768526E-06  8.25485462E-05 -3.87820485E-05  2.81621951E-01  2.33213507E-01
  7.79114125E-05  4.53622967E-05 -4.11673204E-05  2.29335880E-03  1.26783569E-04
 -7.25660993E-05 -5.97709488E-06 -3.60965683E-04 -5.10578446E-05 -4.75518175E-05
 -5.99484494E-06 -5.08163756E-04  7.68970813E-04 -6.66360351E-04  7.76316089E-05
 -1.65944599E-04 -6.17821082E-07  9.23768526E-06  8.25485461E-05  3.87820485E-05
  5.45928297E-12  4.52181380E-12 -3.13956537E-15  1.85481350E-04 -5.57448105E-16
  3.26048636E-14  1.29625540E-14  1.46638275E-04  7.25281327E-15  1.54841001E-13
  8.08053271E-14 -1.37784589E-04 -1.49359792E-14 -2.38519795E-12 -1.29569843E-12
  6.61992031E-04  9.98350203E-14 -7.79675152E-15  1.13770326E-15 -8.01157325E-06