CH2                                                                     
SP        RMP2-FC                                                     6-311++G(d,p)       
Number of atoms                            I               11
Info1-9                                    I   N=           9
          25          20           0           0           0         110
           1           2           1
Charge                                     I                0
Multiplicity                               I                1
Number of electrons                        I               36
Number of alpha electrons                  I               18
Number of beta electrons                   I               18
Number of basis functions                  I              152
Number of independent functions            I              152
Number of point charges in /Mol/           I                0
Number of translation vectors              I                0
Atomic numbers                             I   N=          11
           6           6           6           6           6           1
           1           1           1           1           1
Nuclear charges                            R   N=          11
  6.00000000E+00  6.00000000E+00  6.00000000E+00  6.00000000E+00  6.00000000E+00
  1.00000000E+00  1.00000000E+00  1.00000000E+00  1.00000000E+00  1.00000000E+00
  1.00000000E+00
Current cartesian coordinates              R   N=          33
  5.39304704E-16  1.38727630E+00 -1.87113312E+00 -4.80049385E-16 -1.38727630E+00
 -1.87113312E+00 -7.14899061E-16 -2.22858804E+00  5.32247035E-01 -1.40712264E-16
 -4.22136792E-16  2.29800524E+00  9.22640868E-16  2.22858804E+00  5.32247035E-01
  9.97589495E-16  2.54713918E+00 -3.55617734E+00 -8.74018010E-16 -2.54713918E+00
 -3.55617734E+00 -1.34917702E-15 -4.17716781E+00  1.14789335E+00 -1.65756572E+00
 -4.26996711E-17  3.54757720E+00  1.65756572E+00 -1.46365246E-15  3.54757720E+00
  1.72015609E-15  4.17716781E+00  1.14789335E+00
Force Field                                I                0
Int Atom Types                             I   N=          11
           0           0           0           0           0           0
           0           0           0           0           0
MM charges                                 R   N=          11
  0.00000000E+00  0.00000000E+00  0.00000000E+00  0.00000000E+00  0.00000000E+00
  0.00000000E+00  0.00000000E+00  0.00000000E+00  0.00000000E+00  0.00000000E+00
  0.00000000E+00
Integer atomic weights                     I   N=          11
          12          12          12          12          12           1
           1           1           1           1           1
Real atomic weights                        R   N=          11
  1.20000000E+01  1.20000000E+01  1.20000000E+01  1.20000000E+01  1.20000000E+01
  1.00782504E+00  1.00782504E+00  1.00782504E+00  1.00782504E+00  1.00782504E+00
  1.00782504E+00
Atom fragment info                         I   N=          11
           0           0           0           0           0           0
           0           0           0           0           0
Atom residue num                           I   N=          11
           0           0           0           0           0           0
           0           0           0           0           0
Nuclear spins                              I   N=          11
           0           0           0           0           0           1
           1           1           1           1           1
Nuclear ZEff                               R   N=          11
 -3.60000000E+00 -3.60000000E+00 -3.60000000E+00 -3.60000000E+00 -3.60000000E+00
 -1.00000000E+00 -1.00000000E+00 -1.00000000E+00 -1.00000000E+00 -1.00000000E+00
 -1.00000000E+00
Nuclear QMom                               R   N=          11
  0.00000000E+00  0.00000000E+00  0.00000000E+00  0.00000000E+00  0.00000000E+00
  0.00000000E+00  0.00000000E+00  0.00000000E+00  0.00000000E+00  0.00000000E+00
  0.00000000E+00
Nuclear GFac                               R   N=          11
  0.00000000E+00  0.00000000E+00  0.00000000E+00  0.00000000E+00  0.00000000E+00
  2.79284600E+00  2.79284600E+00  2.79284600E+00  2.79284600E+00  2.79284600E+00
  2.79284600E+00
MicOpt                                     I   N=          11
          -1          -1          -1          -1          -1          -1
          -1          -1          -1          -1          -1
Number of contracted shells                I               60
Number of primitive shells                 I              107
Pure/Cartesian d shells                    I                0
Pure/Cartesian f shells                    I                0
Highest angular momentum                   I                2
Largest degree of contraction              I                6
Shell types                                I   N=          60
           0          -1          -1          -1          -1          -2
           0          -1          -1          -1          -1          -2
           0          -1          -1          -1          -1          -2
           0          -1          -1          -1          -1          -2
           0          -1          -1          -1          -1          -2
           0           0           0           0           1           0
           0           0           0           1           0           0
           0           0           1           0           0           0
           0           1           0           0           0           0
           1           0           0           0           0           1
Number of primitives per shell             I   N=          60
           6           3           1           1           1           1
           6           3           1           1           1           1
           6           3           1           1           1           1
           6           3           1           1           1           1
           6           3           1           1           1           1
           3           1           1           1           1           3
           1           1           1           1           3           1
           1           1           1           3           1           1
           1           1           3           1           1           1
           1           3           1           1           1           1
Shell to atom map                          I   N=          60
           1           1           1           1           1           1
           2           2           2           2           2           2
           3           3           3           3           3           3
           4           4           4           4           4           4
           5           5           5           5           5           5
           6           6           6           6           6           7
           7           7           7           7           8           8
           8           8           8           9           9           9
           9           9          10          10          10          10
          10          11          11          11          11          11
Primitive exponents                        R   N=         107
  4.56324000E+03  6.82024000E+02  1.54973000E+02  4.44553000E+01  1.30290000E+01
  1.82773000E+00  2.09642000E+01  4.80331000E+00  1.45933000E+00  4.83456000E-01
  1.45585000E-01  4.38000000E-02  6.26000000E-01  4.56324000E+03  6.82024000E+02
  1.54973000E+02  4.44553000E+01  1.30290000E+01  1.82773000E+00  2.09642000E+01
  4.80331000E+00  1.45933000E+00  4.83456000E-01  1.45585000E-01  4.38000000E-02
  6.26000000E-01  4.56324000E+03  6.82024000E+02  1.54973000E+02  4.44553000E+01
  1.30290000E+01  1.82773000E+00  2.09642000E+01  4.80331000E+00  1.45933000E+00
  4.83456000E-01  1.45585000E-01  4.38000000E-02  6.26000000E-01  4.56324000E+03
  6.82024000E+02  1.54973000E+02  4.44553000E+01  1.30290000E+01  1.82773000E+00
  2.09642000E+01  4.80331000E+00  1.45933000E+00  4.83456000E-01  1.45585000E-01
  4.38000000E-02  6.26000000E-01  4.56324000E+03  6.82024000E+02  1.54973000E+02
  4.44553000E+01  1.30290000E+01  1.82773000E+00  2.09642000E+01  4.80331000E+00
  1.45933000E+00  4.83456000E-01  1.45585000E-01  4.38000000E-02  6.26000000E-01
  3.38650000E+01  5.09479000E+00  1.15879000E+00  3.25840000E-01  1.02741000E-01
  3.60000000E-02  7.50000000E-01  3.38650000E+01  5.09479000E+00  1.15879000E+00
  3.25840000E-01  1.02741000E-01  3.60000000E-02  7.50000000E-01  3.38650000E+01
  5.09479000E+00  1.15879000E+00  3.25840000E-01  1.02741000E-01  3.60000000E-02
  7.50000000E-01  3.38650000E+01  5.09479000E+00  1.15879000E+00  3.25840000E-01
  1.02741000E-01  3.60000000E-02  7.50000000E-01  3.38650000E+01  5.09479000E+00
  1.15879000E+00  3.25840000E-01  1.02741000E-01  3.60000000E-02  7.50000000E-01
  3.38650000E+01  5.09479000E+00  1.15879000E+00  3.25840000E-01  1.02741000E-01
  3.60000000E-02  7.50000000E-01
Contraction coefficients                   R   N=         107
  1.96665025E-03  1.52306019E-02  7.61269097E-02  2.60801033E-01  6.16462078E-01
  2.21006028E-01  1.14660081E-01  9.19999648E-01 -3.03068213E-03  1.00000000E+00
  1.00000000E+00  1.00000000E+00  1.00000000E+00  1.96665025E-03  1.52306019E-02
  7.61269097E-02  2.60801033E-01  6.16462078E-01  2.21006028E-01  1.14660081E-01
  9.19999648E-01 -3.03068213E-03  1.00000000E+00  1.00000000E+00  1.00000000E+00
  1.00000000E+00  1.96665025E-03  1.52306019E-02  7.61269097E-02  2.60801033E-01
  6.16462078E-01  2.21006028E-01  1.14660081E-01  9.19999648E-01 -3.03068213E-03
  1.00000000E+00  1.00000000E+00  1.00000000E+00  1.00000000E+00  1.96665025E-03
  1.52306019E-02  7.61269097E-02  2.60801033E-01  6.16462078E-01  2.21006028E-01
  1.14660081E-01  9.19999648E-01 -3.03068213E-03  1.00000000E+00  1.00000000E+00
  1.00000000E+00  1.00000000E+00  1.96665025E-03  1.52306019E-02  7.61269097E-02
  2.60801033E-01  6.16462078E-01  2.21006028E-01  1.14660081E-01  9.19999648E-01
 -3.03068213E-03  1.00000000E+00  1.00000000E+00  1.00000000E+00  1.00000000E+00
  2.54938145E-02  1.90373109E-01  8.52161486E-01  1.00000000E+00  1.00000000E+00
  1.00000000E+00  1.00000000E+00  2.54938145E-02  1.90373109E-01  8.52161486E-01
  1.00000000E+00  1.00000000E+00  1.00000000E+00  1.00000000E+00  2.54938145E-02
  1.90373109E-01  8.52161486E-01  1.00000000E+00  1.00000000E+00  1.00000000E+00
  1.00000000E+00  2.54938145E-02  1.90373109E-01  8.52161486E-01  1.00000000E+00
  1.00000000E+00  1.00000000E+00  1.00000000E+00  2.54938145E-02  1.90373109E-01
  8.52161486E-01  1.00000000E+00  1.00000000E+00  1.00000000E+00  1.00000000E+00
  2.54938145E-02  1.90373109E-01  8.52161486E-01  1.00000000E+00  1.00000000E+00
  1.00000000E+00  1.00000000E+00
P(S=P) Contraction coefficients            R   N=         107
  0.00000000E+00  0.00000000E+00  0.00000000E+00  0.00000000E+00  0.00000000E+00
  0.00000000E+00  4.02486927E-02  2.37593957E-01  8.15853851E-01  1.00000000E+00
  1.00000000E+00  1.00000000E+00  0.00000000E+00  0.00000000E+00  0.00000000E+00
  0.00000000E+00  0.00000000E+00  0.00000000E+00  0.00000000E+00  4.02486927E-02
  2.37593957E-01  8.15853851E-01  1.00000000E+00  1.00000000E+00  1.00000000E+00
  0.00000000E+00  0.00000000E+00  0.00000000E+00  0.00000000E+00  0.00000000E+00
  0.00000000E+00  0.00000000E+00  4.02486927E-02  2.37593957E-01  8.15853851E-01
  1.00000000E+00  1.00000000E+00  1.00000000E+00  0.00000000E+00  0.00000000E+00
  0.00000000E+00  0.00000000E+00  0.00000000E+00  0.00000000E+00  0.00000000E+00
  4.02486927E-02  2.37593957E-01  8.15853851E-01  1.00000000E+00  1.00000000E+00
  1.00000000E+00  0.00000000E+00  0.00000000E+00  0.00000000E+00  0.00000000E+00
  0.00000000E+00  0.00000000E+00  0.00000000E+00  4.02486927E-02  2.37593957E-01
  8.15853851E-01  1.00000000E+00  1.00000000E+00  1.00000000E+00  0.00000000E+00
  0.00000000E+00  0.00000000E+00  0.00000000E+00  0.00000000E+00  0.00000000E+00
  0.00000000E+00  0.00000000E+00  0.00000000E+00  0.00000000E+00  0.00000000E+00
  0.00000000E+00  0.00000000E+00  0.00000000E+00  0.00000000E+00  0.00000000E+00
  0.00000000E+00  0.00000000E+00  0.00000000E+00  0.00000000E+00  0.00000000E+00
  0.00000000E+00  0.00000000E+00  0.00000000E+00  0.00000000E+00  0.00000000E+00
  0.00000000E+00  0.00000000E+00  0.00000000E+00  0.00000000E+00  0.00000000E+00
  0.00000000E+00  0.00000000E+00  0.00000000E+00  0.00000000E+00  0.00000000E+00
  0.00000000E+00  0.00000000E+00  0.00000000E+00  0.00000000E+00  0.00000000E+00
  0.00000000E+00  0.00000000E+00
Coordinates of each shell                  R   N=         180
  0.00000000E+00  1.38727630E+00 -1.87113270E+00  0.00000000E+00  1.38727630E+00
 -1.87113270E+00  0.00000000E+00  1.38727630E+00 -1.87113270E+00  0.00000000E+00
  1.38727630E+00 -1.87113270E+00  0.00000000E+00  1.38727630E+00 -1.87113270E+00
  0.00000000E+00  1.38727630E+00 -1.87113270E+00 -1.69892348E-16 -1.38727630E+00
 -1.87113270E+00 -1.69892348E-16 -1.38727630E+00 -1.87113270E+00 -1.69892348E-16
 -1.38727630E+00 -1.87113270E+00 -1.69892348E-16 -1.38727630E+00 -1.87113270E+00
 -1.69892348E-16 -1.38727630E+00 -1.87113270E+00 -1.69892348E-16 -1.38727630E+00
 -1.87113270E+00  0.00000000E+00 -2.22858804E+00  5.32247454E-01  0.00000000E+00
 -2.22858804E+00  5.32247454E-01  0.00000000E+00 -2.22858804E+00  5.32247454E-01
  0.00000000E+00 -2.22858804E+00  5.32247454E-01  0.00000000E+00 -2.22858804E+00
  5.32247454E-01  0.00000000E+00 -2.22858804E+00  5.32247454E-01 -7.08127667E-33
 -7.08127667E-32  2.29800566E+00 -7.08127667E-33 -7.08127667E-32  2.29800566E+00
 -7.08127667E-33 -7.08127667E-32  2.29800566E+00 -7.08127667E-33 -7.08127667E-32
  2.29800566E+00 -7.08127667E-33 -7.08127667E-32  2.29800566E+00 -7.08127667E-33
 -7.08127667E-32  2.29800566E+00  2.72923321E-16  2.22858804E+00  5.32247454E-01
  2.72923321E-16  2.22858804E+00  5.32247454E-01  2.72923321E-16  2.22858804E+00
  5.32247454E-01  2.72923321E-16  2.22858804E+00  5.32247454E-01  2.72923321E-16
  2.22858804E+00  5.32247454E-01  2.72923321E-16  2.22858804E+00  5.32247454E-01
  0.00000000E+00  2.54713918E+00 -3.55617692E+00  0.00000000E+00  2.54713918E+00
 -3.55617692E+00  0.00000000E+00  2.54713918E+00 -3.55617692E+00  0.00000000E+00
  2.54713918E+00 -3.55617692E+00  0.00000000E+00  2.54713918E+00 -3.55617692E+00
 -3.11934584E-16 -2.54713918E+00 -3.55617692E+00 -3.11934584E-16 -2.54713918E+00
 -3.55617692E+00 -3.11934584E-16 -2.54713918E+00 -3.55617692E+00 -3.11934584E-16
 -2.54713918E+00 -3.55617692E+00 -3.11934584E-16 -2.54713918E+00 -3.55617692E+00
  0.00000000E+00 -4.17716781E+00  1.14789377E+00  0.00000000E+00 -4.17716781E+00
  1.14789377E+00  0.00000000E+00 -4.17716781E+00  1.14789377E+00  0.00000000E+00
 -4.17716781E+00  1.14789377E+00  0.00000000E+00 -4.17716781E+00  1.14789377E+00
 -1.65756572E+00  1.01496628E-16  3.54757762E+00 -1.65756572E+00  1.01496628E-16
  3.54757762E+00 -1.65756572E+00  1.01496628E-16  3.54757762E+00 -1.65756572E+00
  1.01496628E-16  3.54757762E+00 -1.65756572E+00  1.01496628E-16  3.54757762E+00
  1.65756572E+00 -3.04489883E-16  3.54757762E+00  1.65756572E+00 -3.04489883E-16
  3.54757762E+00  1.65756572E+00 -3.04489883E-16  3.54757762E+00  1.65756572E+00
 -3.04489883E-16  3.54757762E+00  1.65756572E+00 -3.04489883E-16  3.54757762E+00
  5.11555518E-16  4.17716781E+00  1.14789377E+00  5.11555518E-16  4.17716781E+00
  1.14789377E+00  5.11555518E-16  4.17716781E+00  1.14789377E+00  5.11555518E-16
  4.17716781E+00  1.14789377E+00  5.11555518E-16  4.17716781E+00  1.14789377E+00
Constraint Structure                       R   N=          33
  0.00000000E+00  1.38727630E+00 -1.87113270E+00 -1.69892348E-16 -1.38727630E+00
 -1.87113270E+00  0.00000000E+00 -2.22858804E+00  5.32247454E-01 -7.08127667E-33
 -7.08127667E-32  2.29800566E+00  2.72923321E-16  2.22858804E+00  5.32247454E-01
  0.00000000E+00  2.54713918E+00 -3.55617692E+00 -3.11934584E-16 -2.54713918E+00
 -3.55617692E+00  0.00000000E+00 -4.17716781E+00  1.14789377E+00 -1.65756572E+00
  1.01496628E-16  3.54757762E+00  1.65756572E+00 -3.04489883E-16  3.54757762E+00
  5.11555518E-16  4.17716781E+00  1.14789377E+00
Num ILSW                                   I              100
ILSW                                       I   N=         100
           0           0           0           0           2           0
           0           0           0           0           0          -1
           0           0           0           0           0           0
           0           0           0           0           0           0
           1           0           0           0           0           0
           0           0      100000           0          -1           0
           0           0           0           0           0           0
           0           0           0           1           0           0
           0           0           1           0           0           0
           0           0           4          40           0           0
           0           0           0           0           0           0
           0           0           0           0           0           0
           0           0           0           0           0           0
           0           0           0           0           0           0
           0           0           0           0           0           0
           0           0           0           0           0           0
           0           0           0           0
Num RLSW                                   I               40
RLSW                                       R   N=          40
  1.00000000E+00  1.00000000E+00  1.00000000E+00  1.00000000E+00  1.00000000E+00
  0.00000000E+00  0.00000000E+00  1.00000000E+00  0.00000000E+00  0.00000000E+00
  0.00000000E+00  0.00000000E+00  1.00000000E+00  0.00000000E+00  0.00000000E+00
  0.00000000E+00  0.00000000E+00  1.00000000E+00  0.00000000E+00  0.00000000E+00
  0.00000000E+00  0.00000000E+00  1.00000000E+00  0.00000000E+00  0.00000000E+00
  0.00000000E+00  0.00000000E+00  1.00000000E+00  0.00000000E+00  0.00000000E+00
  0.00000000E+00  0.00000000E+00  0.00000000E+00  0.00000000E+00  0.00000000E+00
  0.00000000E+00  0.00000000E+00  0.00000000E+00  1.00000000E+00  1.00000000E+00
MxBond                                     I                4
NBond                                      I   N=          11
           3           3           3           4           3           1
           1           1           1           1           1
IBond                                      I   N=          44
           2           5           6           0           1           3
           7           0           2           4           8           0
           3           5           9          10           1           4
          11           0           1           0           0           0
           2           0           0           0           3           0
           0           0           4           0           0           0
           4           0           0           0           5           0
           0           0
RBond                                      R   N=          44
  1.00000000E+00  2.00000000E+00  1.00000000E+00  0.00000000E+00  1.00000000E+00
  2.00000000E+00  1.00000000E+00  0.00000000E+00  2.00000000E+00  1.00000000E+00
  1.00000000E+00  0.00000000E+00  1.00000000E+00  1.00000000E+00  1.00000000E+00
  1.00000000E+00  2.00000000E+00  1.00000000E+00  1.00000000E+00  0.00000000E+00
  1.00000000E+00  0.00000000E+00  0.00000000E+00  0.00000000E+00  1.00000000E+00
  0.00000000E+00  0.00000000E+00  0.00000000E+00  1.00000000E+00  0.00000000E+00
  0.00000000E+00  0.00000000E+00  1.00000000E+00  0.00000000E+00  0.00000000E+00
  0.00000000E+00  1.00000000E+00  0.00000000E+00  0.00000000E+00  0.00000000E+00
  1.00000000E+00  0.00000000E+00  0.00000000E+00  0.00000000E+00
Virial Ratio                               R      2.001200330593182E+00
SCF Energy                                 R     -1.928386239587457E+02
MP2 Energy                                 R     -1.935411839249933E+02
Total Energy                               R     -1.935411839249933E+02
Post-SCF wavefunction norm                 R      1.120063647898179E+00
RMS Density                                R      6.250933288604031E-09
External E-field                           R   N=          35
  0.00000000E+00  0.00000000E+00  0.00000000E+00  0.00000000E+00  0.00000000E+00
  0.00000000E+00  0.00000000E+00  0.00000000E+00  0.00000000E+00  0.00000000E+00
  0.00000000E+00  0.00000000E+00  0.00000000E+00  0.00000000E+00  0.00000000E+00
  0.00000000E+00  0.00000000E+00  0.00000000E+00  0.00000000E+00  0.00000000E+00
  0.00000000E+00  0.00000000E+00  0.00000000E+00  0.00000000E+00  0.00000000E+00
  0.00000000E+00  0.00000000E+00  0.00000000E+00  0.00000000E+00  0.00000000E+00
  0.00000000E+00  0.00000000E+00  0.00000000E+00  0.00000000E+00  0.00000000E+00
IOpCl                                      I                0
IROHF                                      I                0
Alpha Orbital Energies                     R   N=         152
 -1.12326533E+01 -1.12300256E+01 -1.12294870E+01 -1.12280238E+01 -1.12278406E+01
 -1.15187646E+00 -9.65453186E-01 -9.55580750E-01 -7.56126945E-01 -7.27483949E-01
 -6.96512318E-01 -5.92032950E-01 -5.62562226E-01 -5.29132566E-01 -5.08447578E-01
 -5.03096329E-01 -4.12887666E-01 -3.07886924E-01  4.21128361E-02  5.06404869E-02
  5.25693676E-02  7.06234470E-02  7.15768210E-02  7.72162356E-02  1.03256460E-01
  1.32154053E-01  1.45214905E-01  1.48854196E-01  1.51184267E-01  1.60067787E-01
  1.62548002E-01  1.85199890E-01  1.90144887E-01  1.92830820E-01  2.03455033E-01
  2.06469323E-01  2.06749745E-01  2.10431520E-01  2.10882150E-01  2.26147957E-01
  2.32785008E-01  2.34633204E-01  2.62025124E-01  2.74544200E-01  2.83121442E-01
  2.85699333E-01  3.39321821E-01  3.51899177E-01  3.89853484E-01  3.90016526E-01
  4.20238247E-01  4.31250681E-01  4.37892837E-01  4.62912609E-01  5.35836220E-01
  5.56777109E-01  6.23221443E-01  6.32452696E-01  6.36913982E-01  6.67302954E-01
  7.11334702E-01  7.40855003E-01  7.47929276E-01  7.51318349E-01  7.52272188E-01
  8.07101926E-01  8.23159771E-01  8.40135077E-01  8.59727742E-01  8.81153960E-01
  8.95242017E-01  9.41923460E-01  9.80757592E-01  9.87933967E-01  1.00076776E+00
  1.00613667E+00  1.01597916E+00  1.03411634E+00  1.09839970E+00  1.11467997E+00
  1.14140489E+00  1.21028571E+00  1.22019633E+00  1.22857126E+00  1.26143359E+00
  1.33564597E+00  1.37719046E+00  1.46714439E+00  1.66007015E+00  1.68622325E+00
  1.73129118E+00  1.81976834E+00  1.82720850E+00  1.82855163E+00  1.83907228E+00
  1.84019974E+00  1.84898819E+00  1.91327851E+00  1.93792885E+00  1.99003973E+00
  2.01807841E+00  2.10063003E+00  2.11229956E+00  2.13391205E+00  2.14585262E+00
  2.18783528E+00  2.19823370E+00  2.24269062E+00  2.24637904E+00  2.27611279E+00
  2.33773383E+00  2.41695191E+00  2.46979693E+00  2.55969889E+00  2.58571225E+00
  2.63924827E+00  2.64550460E+00  2.74095061E+00  2.79001206E+00  2.80825392E+00
  2.88475769E+00  2.90694486E+00  2.97486993E+00  2.98082424E+00  2.98090490E+00
  3.04280024E+00  3.05821230E+00  3.06441131E+00  3.10428744E+00  3.12004617E+00
  3.17919657E+00  3.21619559E+00  3.36172724E+00  3.39105900E+00  3.42500418E+00
  3.47140297E+00  3.60509203E+00  3.73084182E+00  3.78483212E+00  3.90761878E+00
  3.92953564E+00  4.16595855E+00  4.46076473E+00  4.46771904E+00  4.49992992E+00
  4.56862688E+00  5.01554445E+00  2.48371473E+01  2.49829429E+01  2.50665011E+01
  2.53867803E+01  2.54175766E+01
Alpha MO coefficients                      R   N=       23104
  1.07414930E-02  8.89108669E-03  0.00000000E+00  5.71462832E-06  1.01377232E-05
  9.90286804E-05  0.00000000E+00 -1.39504021E-05  7.08125181E-06 -1.21385679E-04
  0.00000000E+00  9.77864823E-05 -1.23897071E-04 -2.03994582E-03  0.00000000E+00
  3.19900385E-04 -6.37362541E-04  1.77210131E-05  0.00000000E+00  4.88753780E-07
  1.38012291E-06  0.00000000E+00  1.07414930E-02  8.89108669E-03  0.00000000E+00
 -5.71462832E-06  1.01377232E-05  9.90286804E-05  0.00000000E+00  1.39504021E-05
  7.08125181E-06 -1.21385679E-04  0.00000000E+00 -9.77864823E-05 -1.23897071E-04
 -2.03994582E-03  0.00000000E+00 -3.19900385E-04 -6.37362541E-04  1.77210131E-05
  0.00000000E+00 -4.88753780E-07  1.38012291E-06  0.00000000E+00  4.76705707E-02
  3.94165795E-02  0.00000000E+00  1.04573172E-04  1.10273297E-04  6.18510067E-04
  0.00000000E+00  2.33296105E-04  1.89160186E-04  1.01562370E-03  0.00000000E+00
  6.17540562E-04  2.58636291E-04  4.26939496E-03  0.00000000E+00  1.51939130E-03
 -2.54931516E-04  5.46187334E-05  0.00000000E+00  1.05565943E-04 -6.11743242E-05
  0.00000000E+00  5.59094314E-01  4.62976921E-01  0.00000000E+00  0.00000000E+00
 -4.96479772E-06  4.59491164E-03  0.00000000E+00  0.00000000E+00 -5.16118340E-05
 -3.35966969E-03  0.00000000E+00  0.00000000E+00  6.59587671E-04 -5.39874190E-03
  0.00000000E+00  0.00000000E+00  1.01447397E-03  5.50411807E-05  0.00000000E+00
  0.00000000E+00  6.28316896E-05  0.00000000E+00  4.76705707E-02  3.94165795E-02
  0.00000000E+00 -1.04573172E-04  1.10273297E-04  6.18510067E-04  0.00000000E+00
 -2.33296105E-04  1.89160186E-04  1.01562370E-03  0.00000000E+00 -6.17540562E-04
  2.58636291E-04  4.26939496E-03  0.00000000E+00 -1.51939130E-03 -2.54931516E-04
  5.46187334E-05  0.00000000E+00 -1.05565943E-04 -6.11743242E-05  0.00000000E+00
  1.07295705E-05 -2.51437506E-05 -3.72225875E-05 -2.34532031E-04  0.00000000E+00
  4.55687759E-06  6.30928952E-06  1.07295705E-05 -2.51437506E-05 -3.72225875E-05
 -2.34532031E-04  0.00000000E+00 -4.55687759E-06  6.30928952E-06  4.25017549E-05
 -3.99421282E-05  3.14583900E-04  6.10081131E-04  0.00000000E+00  9.55328862E-07
 -2.45409245E-05  3.30559662E-04  2.91203155E-04  4.75445258E-04 -1.25610771E-04
  2.69684334E-05  0.00000000E+00 -7.04019249E-05  3.30559662E-04  2.91203155E-04
  4.75445258E-04 -1.25610771E-04 -2.69684334E-05  0.00000000E+00 -7.04019249E-05
  4.25017549E-05 -3.99421282E-05  3.14583900E-04  6.10081131E-04  0.00000000E+00
 -9.55328862E-07 -2.45409245E-05  3.58226492E-01  2.96626595E-01  0.00000000E+00
 -1.98396303E-04 -1.38147854E-04  3.02585121E-03  0.00000000E+00 -5.52396812E-05
  3.35447069E-04 -4.08843936E-04  0.00000000E+00 -1.55091267E-05  3.13966409E-05
 -1.07259074E-03  0.00000000E+00 -3.51936991E-04  1.90700051E-04  1.68987585E-04
  0.00000000E+00  9.44554357E-05 -1.51669076E-04  0.00000000E+00  3.58226492E-01
  2.96626595E-01  0.00000000E+00  1.98396303E-04 -1.38147854E-04  3.02585121E-03
  0.00000000E+00  5.52396812E-05  3.35447069E-04 -4.08843936E-04  0.00000000E+00
  1.55091267E-05  3.13966409E-05 -1.07259074E-03  0.00000000E+00  3.51936991E-04
  1.90700051E-04  1.68987585E-04  0.00000000E+00 -9.44554357E-05 -1.51669076E-04
  0.00000000E+00  1.71311488E-01  1.41849449E-01  0.00000000E+00  3.11744539E-05
 -5.29085557E-05  1.47792436E-03  0.00000000E+00  2.31819174E-06 -1.80123723E-04
 -6.99776972E-04  0.00000000E+00 -1.84511493E-04  1.99454470E-05  1.93486436E-03
  0.00000000E+00  6.87424647E-04 -3.41951004E-04  7.60869555E-05  0.00000000E+00
 -9.34148555E-05  1.11047052E-05  0.00000000E+00 -4.30642825E-02 -3.57110392E-02
  0.00000000E+00  0.00000000E+00 -4.39164208E-05 -1.29740329E-04  0.00000000E+00
  0.00000000E+00 -1.62666759E-04  4.56228465E-04  0.00000000E+00  0.00000000E+00
 -1.67270630E-04 -1.92519834E-03  0.00000000E+00  0.00000000E+00  1.08024995E-03
 -1.76107805E-05  0.00000000E+00  0.00000000E+00 -4.47213097E-05  0.00000000E+00
  1.71311488E-01  1.41849449E-01  0.00000000E+00 -3.11744539E-05 -5.29085557E-05
  1.47792436E-03  0.00000000E+00 -2.31819174E-06 -1.80123723E-04 -6.99776972E-04
  0.00000000E+00  1.84511493E-04  1.99454470E-05  1.93486436E-03  0.00000000E+00
 -6.87424647E-04 -3.41951004E-04  7.60869555E-05  0.00000000E+00  9.34148555E-05
  1.11047052E-05  0.00000000E+00  2.66240318E-04 -3.83579240E-05  3.81489658E-04
  2.47364393E-04  0.00000000E+00 -1.67820692E-05  3.71109827E-05  2.66240318E-04
 -3.83579240E-05  3.81489658E-04  2.47364393E-04  0.00000000E+00  1.67820692E-05
  3.71109827E-05  1.25713318E-04 -3.32928348E-05  1.52380997E-04  3.45158525E-04
  0.00000000E+00  7.01244875E-06 -2.61100430E-05 -3.39299055E-05  3.18852642E-05
 -1.64435337E-04 -4.14442141E-04  1.94719118E-05  0.00000000E+00  9.21407782E-06
 -3.39299055E-05  3.18852642E-05 -1.64435337E-04 -4.14442141E-04 -1.94719118E-05
  0.00000000E+00  9.21407782E-06  1.25713318E-04 -3.32928348E-05  1.52380997E-04
  3.45158525E-04  0.00000000E+00 -7.01244875E-06 -2.61100430E-05  3.10106385E-01
  2.56851630E-01  0.00000000E+00  1.33981497E-07 -7.98905810E-05  2.29296121E-03
  0.00000000E+00  4.12653837E-04  3.18813267E-04 -5.49537142E-04  0.00000000E+00
 -5.93253368E-05 -2.46743151E-04  3.37000023E-03  0.00000000E+00 -6.19620109E-04
  1.78181413E-03  3.37573075E-04  0.00000000E+00  7.30129390E-06 -1.82481861E-05
  0.00000000E+00 -3.10106385E-01 -2.56851630E-01  0.00000000E+00  1.33981497E-07
  7.98905810E-05 -2.29296121E-03  0.00000000E+00  4.12653837E-04 -3.18813267E-04
  5.49537142E-04  0.00000000E+00 -5.93253368E-05  2.46743151E-04 -3.37000023E-03
  0.00000000E+00 -6.19620109E-04 -1.78181413E-03 -3.37573075E-04  0.00000000E+00
  7.30129390E-06  1.82481861E-05  0.00000000E+00 -2.49927338E-01 -2.06972922E-01
  0.00000000E+00 -4.60530516E-05 -2.48299892E-05 -1.98480216E-03  0.00000000E+00
  7.79289643E-05  2.11267718E-04  2.20571162E-04  0.00000000E+00 -9.25892399E-05
  5.01576351E-05  1.61247772E-03  0.00000000E+00 -8.39850166E-04  1.01827325E-04
 -1.06589984E-04  0.00000000E+00  1.17374574E-04  5.14213749E-05  0.00000000E+00
  0.00000000E+00  0.00000000E+00  0.00000000E+00  8.03285164E-05  0.00000000E+00
  0.00000000E+00  0.00000000E+00  2.97739248E-04  0.00000000E+00  0.00000000E+00
  0.00000000E+00 -6.42692200E-05  0.00000000E+00  0.00000000E+00  0.00000000E+00
  2.41805008E-04  0.00000000E+00  0.00000000E+00  0.00000000E+00 -1.52171746E-04