 Entering Gaussian System, Link 0=g09
 Initial command:
 /apps/software//g09/l1.exe /scratch/itamar/3024.cluster.abaxnet/Gau-47368.inp -scrdir=/scratch/itamar/3024.cluster.abaxnet/
 Entering Link 1 = /apps/software//g09/l1.exe PID=     47369.
  
 Copyright (c) 1988,1990,1992,1993,1995,1998,2003,2009, Gaussian, Inc.
                  All Rights Reserved.
  
 This is part of the Gaussian(R) 09 program.  It is based on
 the Gaussian(R) 03 system (copyright 2003, Gaussian, Inc.),
 the Gaussian(R) 98 system (copyright 1998, Gaussian, Inc.),
 the Gaussian(R) 94 system (copyright 1995, Gaussian, Inc.),
 the Gaussian 92(TM) system (copyright 1992, Gaussian, Inc.),
 the Gaussian 90(TM) system (copyright 1990, Gaussian, Inc.),
 the Gaussian 88(TM) system (copyright 1988, Gaussian, Inc.),
 the Gaussian 86(TM) system (copyright 1986, Carnegie Mellon
 University), and the Gaussian 82(TM) system (copyright 1983,
 Carnegie Mellon University). Gaussian is a federally registered
 trademark of Gaussian, Inc.
  
 This software contains proprietary and confidential information,
 including trade secrets, belonging to Gaussian, Inc.
  
 This software is provided under written license and may be
 used, copied, transmitted, or stored only in accord with that
 written license.
  
 The following legend is applicable only to US Government
 contracts under FAR:
  
                    RESTRICTED RIGHTS LEGEND
  
 Use, reproduction and disclosure by the US Government is
 subject to restrictions as set forth in subparagraphs (a)
 and (c) of the Commercial Computer Software - Restricted
 Rights clause in FAR 52.227-19.
  
 Gaussian, Inc.
 340 Quinnipiac St., Bldg. 40, Wallingford CT 06492
  
  
 ---------------------------------------------------------------
 Warning -- This program may not be used in any manner that
 competes with the business of Gaussian, Inc. or will provide
 assistance to any competitor of Gaussian, Inc.  The licensee
 of this program is prohibited from giving any competitor of
 Gaussian, Inc. access to this program.  By using this program,
 the user acknowledges that Gaussian, Inc. is engaged in the
 business of creating and licensing software in the field of
 computational chemistry and represents and warrants to the
 licensee that it is not a competitor of Gaussian, Inc. and that
 it will not use this program in any manner prohibited above.
 ---------------------------------------------------------------
  

 Cite this work as:
 Gaussian 09, Revision A.02,
 M. J. Frisch, G. W. Trucks, H. B. Schlegel, G. E. Scuseria, 
 M. A. Robb, J. R. Cheeseman, G. Scalmani, V. Barone, B. Mennucci, 
 G. A. Petersson, H. Nakatsuji, M. Caricato, X. Li, H. P. Hratchian, 
 A. F. Izmaylov, J. Bloino, G. Zheng, J. L. Sonnenberg, M. Hada, 
 M. Ehara, K. Toyota, R. Fukuda, J. Hasegawa, M. Ishida, T. Nakajima, 
 Y. Honda, O. Kitao, H. Nakai, T. Vreven, J. A. Montgomery, Jr., 
 J. E. Peralta, F. Ogliaro, M. Bearpark, J. J. Heyd, E. Brothers, 
 K. N. Kudin, V. N. Staroverov, R. Kobayashi, J. Normand, 
 K. Raghavachari, A. Rendell, J. C. Burant, S. S. Iyengar, J. Tomasi, 
 M. Cossi, N. Rega, J. M. Millam, M. Klene, J. E. Knox, J. B. Cross, 
 V. Bakken, C. Adamo, J. Jaramillo, R. Gomperts, R. E. Stratmann, 
 O. Yazyev, A. J. Austin, R. Cammi, C. Pomelli, J. W. Ochterski, 
 R. L. Martin, K. Morokuma, V. G. Zakrzewski, G. A. Voth, 
 P. Salvador, J. J. Dannenberg, S. Dapprich, A. D. Daniels, 
 O. Farkas, J. B. Foresman, J. V. Ortiz, J. Cioslowski, 
 and D. J. Fox, Gaussian, Inc., Wallingford CT, 2009.
 
 ******************************************
 Gaussian 09:  EM64L-G09RevA.02 11-Jun-2009
                21-Dec-2021 
 ******************************************
 %Mem=3800MB
 %NProcShared=6
 Will use up to    6 processors via shared memory.
 %chk=/home/itamar/Aromaticity-test-set/T12-old-T14-Fulvenes/Hepta-BH2m/hepta-bh2
 m.chk
 -----------------------------
 #P MP2/6-311++G** DENSITY=MP2
 -----------------------------
 1/30=1,38=1/1;
 2/12=2,17=6,18=5,40=1/2;
 3/5=4,6=6,7=1111,11=9,16=1,25=1,30=1,71=1/1,2,3;
 4//1;
 5/5=2,38=5/2;
 8/6=4,10=2/1;
 9/15=1,16=-3/6;
 10/5=1,13=10/2;
 6/7=2,8=2,9=2,10=2,22=2/1;
 99/5=1,9=1/99;
 Leave Link    1 at Tue Dec 21 19:10:27 2021, MaxMem=  498073600 cpu:       0.2
 (Enter /apps/software//g09/l101.exe)
 -------
 Hepta-O
 -------
 Symbolic Z-matrix:
 Charge = -1 Multiplicity = 1
 6                     0.67407  -1.87364   0. 
 6                     1.58063  -0.71874   0. 
 6                    -0.67408  -1.87354   0. 
 6                    -1.58059  -0.7187    0. 
 6                    -1.26765   0.60533   0. 
 6                     0.        1.33169   0. 
 6                     1.26773   0.60525   0. 
 1                    -2.13088   1.27181   0. 
 1                     2.13096   1.27175   0. 
 1                     2.63959  -0.971     0. 
 1                     1.16468  -2.84654   0. 
 1                    -1.16476  -2.84643   0. 
 1                    -2.63956  -0.97092   0. 
 5                    -0.00001   2.81164   0. 
 1                    -1.03401   3.44341   0. 
 1                     1.03337   3.4438    0. 
 
 NAtoms=     16 NQM=     16 NQMF=      0 NMic=      0 NMicF=      0 NTot=     16.
                    Isotopes and Nuclear Properties:
 (Nuclear quadrupole moments (NQMom) in fm**2, nuclear magnetic moments (NMagM)
  in nuclear magnetons)

  Atom         1           2           3           4           5           6           7           8           9          10
 IAtWgt=          12          12          12          12          12          12          12           1           1           1
 AtmWgt=  12.0000000  12.0000000  12.0000000  12.0000000  12.0000000  12.0000000  12.0000000   1.0078250   1.0078250   1.0078250
 NucSpn=           0           0           0           0           0           0           0           1           1           1
 AtZEff=   0.0000000   0.0000000   0.0000000   0.0000000   0.0000000   0.0000000   0.0000000   0.0000000   0.0000000   0.0000000
 NQMom=    0.0000000   0.0000000   0.0000000   0.0000000   0.0000000   0.0000000   0.0000000   0.0000000   0.0000000   0.0000000
 NMagM=    0.0000000   0.0000000   0.0000000   0.0000000   0.0000000   0.0000000   0.0000000   2.7928460   2.7928460   2.7928460

  Atom        11          12          13          14          15          16
 IAtWgt=           1           1           1          11           1           1
 AtmWgt=   1.0078250   1.0078250   1.0078250  11.0093053   1.0078250   1.0078250
 NucSpn=           1           1           1           3           1           1
 AtZEff=   0.0000000   0.0000000   0.0000000   0.0000000   0.0000000   0.0000000
 NQMom=    0.0000000   0.0000000   0.0000000   4.0590000   0.0000000   0.0000000
 NMagM=    2.7928460   2.7928460   2.7928460   2.6886370   2.7928460   2.7928460
 Leave Link  101 at Tue Dec 21 19:10:27 2021, MaxMem=  498073600 cpu:       0.3
 (Enter /apps/software//g09/l202.exe)
                          Input orientation:                          
 ---------------------------------------------------------------------
 Center     Atomic      Atomic             Coordinates (Angstroms)
 Number     Number       Type             X           Y           Z
 ---------------------------------------------------------------------
      1          6           0        0.674071   -1.873641    0.000000
      2          6           0        1.580627   -0.718739    0.000000
      3          6           0       -0.674082   -1.873542    0.000000
      4          6           0       -1.580593   -0.718697    0.000000
      5          6           0       -1.267649    0.605334    0.000000
      6          6           0        0.000000    1.331685    0.000000
      7          6           0        1.267734    0.605251    0.000000
      8          1           0       -2.130883    1.271808    0.000000
      9          1           0        2.130962    1.271749    0.000000
     10          1           0        2.639591   -0.970998    0.000000
     11          1           0        1.164683   -2.846540    0.000000
     12          1           0       -1.164756   -2.846430    0.000000
     13          1           0       -2.639558   -0.970915    0.000000
     14          5           0       -0.000009    2.811642    0.000000
     15          1           0       -1.034012    3.443412    0.000000
     16          1           0        1.033375    3.443796    0.000000
 ---------------------------------------------------------------------
                    Distance matrix (angstroms):
                    1          2          3          4          5
     1  C    0.000000
     2  C    1.468211   0.000000
     3  C    1.348153   2.533236   0.000000
     4  C    2.533260   3.161220   1.468138   0.000000
     5  C    3.148904   3.140994   2.548950   1.360512   0.000000
     6  C    3.275437   2.588942   3.275342   2.588888   1.461000
     7  C    2.548988   1.360460   3.148819   3.140988   2.535383
     8  H    4.214453   4.211601   3.466338   2.065171   1.090578
     9  H    3.466412   2.065166   4.214395   4.211593   3.463332
    10  H    2.162876   1.088595   3.434387   4.227719   4.213235
    11  H    1.089602   2.168074   2.080332   3.473364   4.222757
    12  H    2.080289   3.473355   1.089620   2.167987   3.453297
    13  H    3.434392   4.227713   2.162829   1.088587   2.089664
    14  B    4.733525   3.868074   4.733426   3.868015   2.544544
    15  H    5.584675   4.915266   5.329123   4.197845   2.847679
    16  H    5.329562   4.198355   5.584755   4.915199   3.653981
                    6          7          8          9         10
     6  C    0.000000
     7  C    1.461115   0.000000
     8  H    2.131724   3.463365   0.000000
     9  H    2.131805   1.090588   4.261845   0.000000
    10  H    3.502826   2.089630   5.271395   2.299699   0.000000
    11  H    4.337517   3.453329   5.274613   4.230130   2.386003
    12  H    4.337430   4.222690   4.230046   5.274576   4.241498
    13  H    3.502747   4.213221   2.299686   5.271376   5.279149
    14  B    1.479957   2.544668   2.629014   2.629127   4.612576
    15  H    2.351292   3.654202   2.432897   3.838383   5.743028
    16  H    2.351356   2.848203   3.837976   2.433616   4.697908
                   11         12         13         14         15
    11  H    0.000000
    12  H    2.329439   0.000000
    13  H    4.241488   2.385916   0.000000
    14  B    5.776810   5.776713   4.612478   0.000000
    15  H    6.663164   6.291201   4.697240   1.211732   0.000000
    16  H    6.291706   6.663237   5.742831   1.211405   2.067387
                   16
    16  H    0.000000
 Stoichiometry    C7H8B(1-)
 Framework group  CS[SG(C7H8B)]
 Deg. of freedom    29
 Full point group                 CS      NOp   2
 Largest Abelian subgroup         CS      NOp   2
 Largest concise Abelian subgroup C1      NOp   1
                         Standard orientation:                         
 ---------------------------------------------------------------------
 Center     Atomic      Atomic             Coordinates (Angstroms)
 Number     Number       Type             X           Y           Z
 ---------------------------------------------------------------------
      1          6           0        0.674071   -1.873641    0.000000
      2          6           0        1.580627   -0.718739    0.000000
      3          6           0       -0.674082   -1.873542    0.000000
      4          6           0       -1.580593   -0.718697    0.000000
      5          6           0       -1.267649    0.605334    0.000000
      6          6           0        0.000000    1.331685    0.000000
      7          6           0        1.267734    0.605251    0.000000
      8          1           0       -2.130883    1.271808    0.000000
      9          1           0        2.130962    1.271749    0.000000
     10          1           0        2.639591   -0.970998    0.000000
     11          1           0        1.164683   -2.846540    0.000000
     12          1           0       -1.164756   -2.846430    0.000000
     13          1           0       -2.639558   -0.970915    0.000000
     14          5           0       -0.000009    2.811642    0.000000
     15          1           0       -1.034012    3.443412    0.000000
     16          1           0        1.033375    3.443796    0.000000
 ---------------------------------------------------------------------
 Rotational constants (GHZ):      3.6749869      1.9502515      1.2741058
 Leave Link  202 at Tue Dec 21 19:10:27 2021, MaxMem=  498073600 cpu:       0.1
 (Enter /apps/software//g09/l301.exe)
 Standard basis: 6-311++G(d,p) (5D, 7F)
 Ernie: Thresh=  0.10000D-02 Tol=  0.10000D-05 Strict=F.
 There are   176 symmetry adapted basis functions of A'  symmetry.
 There are    56 symmetry adapted basis functions of A"  symmetry.
 Integral buffers will be    131072 words long.
 Raffenetti 1 integral format.
 Two-electron integral symmetry is turned on.
   232 basis functions,   360 primitive gaussians,   240 cartesian basis functions
    28 alpha electrons       28 beta electrons
       nuclear repulsion energy       306.0773031459 Hartrees.
 IExCor=    0 DFT=F Ex=HF Corr=None ExCW=0 ScaHFX=  1.000000
 ScaDFX=  1.000000  1.000000  1.000000  1.000000 ScalE2=  1.000000  1.000000
 IRadAn=      0 IRanWt=     -1 IRanGd=            0 ICorTp=0
 NAtoms=   16 NActive=   16 NUniq=   16 SFac= 7.50D-01 NAtFMM=   80 NAOKFM=F Big=F
 Leave Link  301 at Tue Dec 21 19:10:27 2021, MaxMem=  498073600 cpu:       0.3
 (Enter /apps/software//g09/l302.exe)
 NPDir=0 NMtPBC=     1 NCelOv=     1 NCel=       1 NClECP=     1 NCelD=      1
         NCelK=      1 NCelE2=     1 NClLst=     1 CellRange=     0.0.
 One-electron integrals computed using PRISM.
 NBasis=   232 RedAO= T  NBF=   176    56
 NBsUse=   232 1.00D-06 NBFU=   176    56
 Leave Link  302 at Tue Dec 21 19:10:28 2021, MaxMem=  498073600 cpu:       1.1
 (Enter /apps/software//g09/l303.exe)
 DipDrv:  MaxL=1.
 Leave Link  303 at Tue Dec 21 19:10:28 2021, MaxMem=  498073600 cpu:       0.2
 (Enter /apps/software//g09/l401.exe)
 Harris functional with IExCor=  205 diagonalized for initial guess.
 ExpMin= 3.15D-02 ExpMax= 4.56D+03 ExpMxC= 6.82D+02 IAcc=3 IRadAn=         0 AccDes= 0.00D+00
 HarFok:  IExCor=  205 AccDes= 0.00D+00 IRadAn=         0 IDoV= 1
 ScaDFX=  1.000000  1.000000  1.000000  1.000000
 FoFCou: FMM=F IPFlag=           0 FMFlag=      100000 FMFlg1=           0
         NFxFlg=           0 DoJE=T BraDBF=F KetDBF=T FulRan=T
         Omega=  0.000000  0.000000  1.000000  0.000000  0.000000 ICntrl=     500 IOpCl=  0
         NMat0=    1 NMatS0=    1 NMatT0=    0 NMatD0=    1 NMtDS0=    0 NMtDT0=    0
         I1Cent=           4 NGrid=           0.
 Petite list used in FoFCou.
 Harris En= -295.181450447351    
 Initial guess orbital symmetries:
       Occupied  (A') (A') (A') (A') (A') (A') (A') (A') (A') (A')
                 (A') (A') (A') (A') (A') (A') (A') (A') (A') (A')
                 (A') (A") (A') (A') (A') (A") (A") (A")
       Virtual   (A") (A") (A") (A') (A") (A') (A') (A') (A') (A')
                 (A') (A') (A") (A') (A') (A') (A") (A") (A') (A')
                 (A') (A') (A") (A') (A") (A') (A') (A') (A') (A')
                 (A') (A") (A') (A') (A') (A') (A") (A") (A') (A')
                 (A') (A') (A') (A') (A') (A') (A') (A') (A') (A')
                 (A') (A') (A') (A') (A') (A') (A') (A') (A") (A')
                 (A') (A') (A') (A") (A') (A') (A') (A') (A") (A')
                 (A') (A") (A') (A") (A') (A") (A") (A') (A") (A')
                 (A') (A') (A') (A") (A') (A') (A') (A") (A') (A')
                 (A') (A') (A') (A') (A') (A') (A') (A") (A') (A")
                 (A") (A") (A') (A') (A") (A") (A') (A') (A') (A')
                 (A') (A") (A') (A') (A') (A') (A') (A") (A') (A")
                 (A") (A") (A') (A') (A') (A') (A') (A") (A") (A")
                 (A") (A') (A') (A") (A') (A") (A') (A') (A") (A')
                 (A') (A') (A") (A") (A') (A') (A') (A') (A") (A')
                 (A") (A') (A") (A') (A') (A') (A') (A') (A") (A')
                 (A') (A') (A') (A') (A') (A') (A") (A') (A") (A')
                 (A') (A') (A') (A") (A") (A') (A') (A") (A") (A')
                 (A') (A') (A') (A') (A') (A') (A') (A') (A') (A')
                 (A') (A') (A') (A') (A') (A') (A') (A') (A') (A')
                 (A') (A') (A') (A')
 The electronic state of the initial guess is 1-A'.
 Leave Link  401 at Tue Dec 21 19:10:28 2021, MaxMem=  498073600 cpu:       2.8
 (Enter /apps/software//g09/l502.exe)
 Closed shell SCF:
 Requested convergence on RMS density matrix=1.00D-08 within 128 cycles.
 Requested convergence on MAX density matrix=1.00D-06.
 Requested convergence on             energy=1.00D-06.
 No special actions if energy rises.
 Using DIIS extrapolation, IDIIS=  1040.
 Integral symmetry usage will be decided dynamically.
 Keep R1 ints in memory in canonical form, NReq=425390580.
 IEnd=      194266 IEndB=      194266 NGot=   498073600 MDV=    79756127
 LenX=    79756127 LenY=    79698086
 Symmetry not used in FoFDir.
 MinBra= 0 MaxBra= 2 Meth= 1.
 IRaf=       0 NMat=   1 IRICut=       1 DoRegI=T DoRafI=F ISym2E= 0 JSym2E=0.

 Cycle   1  Pass 1  IDiag  1:
 E= -293.901515230126    
 DIIS: error= 6.78D-02 at cycle   1 NSaved=   1.
 NSaved= 1 IEnMin= 1 EnMin= -293.901515230126     IErMin= 1 ErrMin= 6.78D-02
 ErrMax= 6.78D-02 EMaxC= 1.00D-01 BMatC= 7.34D-01 BMatP= 7.34D-01
 IDIUse=3 WtCom= 3.22D-01 WtEn= 6.78D-01
 Coeff-Com:  0.100D+01
 Coeff-En:   0.100D+01
 Coeff:      0.100D+01
 Gap=     0.154 Goal=   None    Shift=    0.000
 GapD=    0.154 DampG=1.000 DampE=0.500 DampFc=0.5000 IDamp=-1.
 Damping current iteration by 5.00D-01
 RMSDP=1.93D-02 MaxDP=9.04D-01              OVMax= 3.14D-01

 Cycle   2  Pass 1  IDiag  1:
 E= -294.172301480928     Delta-E=       -0.270786250802 Rises=F Damp=T
 DIIS: error= 2.79D-02 at cycle   2 NSaved=   2.
 NSaved= 2 IEnMin= 2 EnMin= -294.172301480928     IErMin= 2 ErrMin= 2.79D-02
 ErrMax= 2.79D-02 EMaxC= 1.00D-01 BMatC= 1.49D-01 BMatP= 7.34D-01
 IDIUse=3 WtCom= 7.21D-01 WtEn= 2.79D-01
 Coeff-Com: -0.611D+00 0.161D+01
 Coeff-En:   0.000D+00 0.100D+01
 Coeff:     -0.440D+00 0.144D+01
 Gap=     0.187 Goal=   None    Shift=    0.000
 RMSDP=2.45D-02 MaxDP=1.27D+00 DE=-2.71D-01 OVMax= 1.42D-01

 Cycle   3  Pass 1  IDiag  1:
 E= -294.418884209663     Delta-E=       -0.246582728736 Rises=F Damp=F
 DIIS: error= 5.56D-03 at cycle   3 NSaved=   3.
 NSaved= 3 IEnMin= 3 EnMin= -294.418884209663     IErMin= 3 ErrMin= 5.56D-03
 ErrMax= 5.56D-03 EMaxC= 1.00D-01 BMatC= 5.62D-03 BMatP= 1.49D-01
 IDIUse=3 WtCom= 9.44D-01 WtEn= 5.56D-02
 Coeff-Com: -0.164D+00 0.307D+00 0.857D+00
 Coeff-En:   0.000D+00 0.000D+00 0.100D+01
 Coeff:     -0.155D+00 0.290D+00 0.865D+00
 Gap=     0.182 Goal=   None    Shift=    0.000
 RMSDP=4.31D-03 MaxDP=1.57D-01 DE=-2.47D-01 OVMax= 2.48D-02

 Cycle   4  Pass 1  IDiag  1:
 E= -294.424811692067     Delta-E=       -0.005927482404 Rises=F Damp=F
 DIIS: error= 1.65D-03 at cycle   4 NSaved=   4.
 NSaved= 4 IEnMin= 4 EnMin= -294.424811692067     IErMin= 4 ErrMin= 1.65D-03
 ErrMax= 1.65D-03 EMaxC= 1.00D-01 BMatC= 3.74D-04 BMatP= 5.62D-03
 IDIUse=3 WtCom= 9.83D-01 WtEn= 1.65D-02
 Coeff-Com: -0.196D-01 0.216D-01 0.192D+00 0.806D+00
 Coeff-En:   0.000D+00 0.000D+00 0.000D+00 0.100D+01
 Coeff:     -0.193D-01 0.212D-01 0.189D+00 0.809D+00
 Gap=     0.182 Goal=   None    Shift=    0.000
 RMSDP=9.72D-04 MaxDP=4.21D-02 DE=-5.93D-03 OVMax= 1.12D-02

 Cycle   5  Pass 1  IDiag  1:
 E= -294.425358074255     Delta-E=       -0.000546382187 Rises=F Damp=F
 DIIS: error= 8.16D-04 at cycle   5 NSaved=   5.
 NSaved= 5 IEnMin= 5 EnMin= -294.425358074255     IErMin= 5 ErrMin= 8.16D-04
 ErrMax= 8.16D-04 EMaxC= 1.00D-01 BMatC= 3.79D-05 BMatP= 3.74D-04
 IDIUse=3 WtCom= 9.92D-01 WtEn= 8.16D-03
 Coeff-Com:  0.793D-02-0.149D-01-0.621D-01 0.414D-01 0.103D+01
 Coeff-En:   0.000D+00 0.000D+00 0.000D+00 0.000D+00 0.100D+01
 Coeff:      0.786D-02-0.148D-01-0.616D-01 0.411D-01 0.103D+01
 Gap=     0.183 Goal=   None    Shift=    0.000
 RMSDP=6.25D-04 MaxDP=2.79D-02 DE=-5.46D-04 OVMax= 8.01D-03

 Cycle   6  Pass 1  IDiag  1:
 E= -294.425470254646     Delta-E=       -0.000112180391 Rises=F Damp=F
 DIIS: error= 2.93D-04 at cycle   6 NSaved=   6.
 NSaved= 6 IEnMin= 6 EnMin= -294.425470254646     IErMin= 6 ErrMin= 2.93D-04
 ErrMax= 2.93D-04 EMaxC= 1.00D-01 BMatC= 9.30D-06 BMatP= 3.79D-05
 IDIUse=3 WtCom= 9.97D-01 WtEn= 2.93D-03
 Coeff-Com:  0.395D-02-0.506D-02-0.473D-01-0.120D+00 0.261D+00 0.907D+00
 Coeff-En:   0.000D+00 0.000D+00 0.000D+00 0.000D+00 0.000D+00 0.100D+01
 Coeff:      0.394D-02-0.505D-02-0.472D-01-0.119D+00 0.260D+00 0.908D+00
 Gap=     0.184 Goal=   None    Shift=    0.000
 RMSDP=2.40D-04 MaxDP=1.11D-02 DE=-1.12D-04 OVMax= 3.72D-03

 Cycle   7  Pass 1  IDiag  1:
 E= -294.425495150521     Delta-E=       -0.000024895875 Rises=F Damp=F
 DIIS: error= 1.39D-04 at cycle   7 NSaved=   7.
 NSaved= 7 IEnMin= 7 EnMin= -294.425495150521     IErMin= 7 ErrMin= 1.39D-04
 ErrMax= 1.39D-04 EMaxC= 1.00D-01 BMatC= 7.18D-07 BMatP= 9.30D-06
 IDIUse=3 WtCom= 9.99D-01 WtEn= 1.39D-03
 Coeff-Com: -0.172D-02 0.305D-02 0.108D-01 0.169D-01-0.120D+00-0.214D+00
 Coeff-Com:  0.130D+01
 Coeff-En:   0.000D+00 0.000D+00 0.000D+00 0.000D+00 0.000D+00 0.000D+00
 Coeff-En:   0.100D+01
 Coeff:     -0.172D-02 0.305D-02 0.108D-01 0.169D-01-0.120D+00-0.213D+00
 Coeff:      0.130D+01
 Gap=     0.184 Goal=   None    Shift=    0.000
 RMSDP=7.91D-05 MaxDP=4.53D-03 DE=-2.49D-05 OVMax= 2.34D-03

 Cycle   8  Pass 1  IDiag  1:
 E= -294.425499537195     Delta-E=       -0.000004386675 Rises=F Damp=F
 DIIS: error= 3.95D-05 at cycle   8 NSaved=   8.
 NSaved= 8 IEnMin= 8 EnMin= -294.425499537195     IErMin= 8 ErrMin= 3.95D-05
 ErrMax= 3.95D-05 EMaxC= 1.00D-01 BMatC= 1.51D-07 BMatP= 7.18D-07
 IDIUse=1 WtCom= 1.00D+00 WtEn= 0.00D+00
 Coeff-Com: -0.752D-03 0.111D-02 0.593D-02 0.205D-01-0.248D-01-0.187D+00
 Coeff-Com:  0.279D-01 0.116D+01
 Coeff:     -0.752D-03 0.111D-02 0.593D-02 0.205D-01-0.248D-01-0.187D+00
 Coeff:      0.279D-01 0.116D+01
 Gap=     0.184 Goal=   None    Shift=    0.000
 RMSDP=3.90D-05 MaxDP=2.47D-03 DE=-4.39D-06 OVMax= 8.64D-04

 Cycle   9  Pass 1  IDiag  1:
 E= -294.425500147753     Delta-E=       -0.000000610558 Rises=F Damp=F
 DIIS: error= 1.38D-05 at cycle   9 NSaved=   9.
 NSaved= 9 IEnMin= 9 EnMin= -294.425500147753     IErMin= 9 ErrMin= 1.38D-05
 ErrMax= 1.38D-05 EMaxC= 1.00D-01 BMatC= 1.19D-08 BMatP= 1.51D-07
 IDIUse=1 WtCom= 1.00D+00 WtEn= 0.00D+00
 Coeff-Com:  0.404D-04-0.964D-04-0.350D-03 0.229D-02 0.762D-02-0.172D-01
 Coeff-Com: -0.933D-01 0.118D+00 0.983D+00
 Coeff:      0.404D-04-0.964D-04-0.350D-03 0.229D-02 0.762D-02-0.172D-01
 Coeff:     -0.933D-01 0.118D+00 0.983D+00
 Gap=     0.184 Goal=   None    Shift=    0.000
 RMSDP=1.05D-05 MaxDP=4.39D-04 DE=-6.11D-07 OVMax= 1.91D-04

 Cycle  10  Pass 1  IDiag  1:
 E= -294.425500188305     Delta-E=       -0.000000040552 Rises=F Damp=F
 DIIS: error= 4.64D-06 at cycle  10 NSaved=  10.
 NSaved=10 IEnMin=10 EnMin= -294.425500188305     IErMin=10 ErrMin= 4.64D-06
 ErrMax= 4.64D-06 EMaxC= 1.00D-01 BMatC= 1.37D-09 BMatP= 1.19D-08
 IDIUse=1 WtCom= 1.00D+00 WtEn= 0.00D+00
 Coeff-Com:  0.126D-03-0.189D-03-0.102D-02-0.262D-02 0.413D-02 0.265D-01
 Coeff-Com:  0.543D-02-0.186D+00-0.246D-01 0.118D+01
 Coeff:      0.126D-03-0.189D-03-0.102D-02-0.262D-02 0.413D-02 0.265D-01
 Coeff:      0.543D-02-0.186D+00-0.246D-01 0.118D+01
 Gap=     0.184 Goal=   None    Shift=    0.000
 RMSDP=4.37D-06 MaxDP=1.75D-04 DE=-4.06D-08 OVMax= 5.58D-05

 Cycle  11  Pass 1  IDiag  1:
 E= -294.425500194107     Delta-E=       -0.000000005802 Rises=F Damp=F
 DIIS: error= 1.06D-06 at cycle  11 NSaved=  11.
 NSaved=11 IEnMin=11 EnMin= -294.425500194107     IErMin=11 ErrMin= 1.06D-06
 ErrMax= 1.06D-06 EMaxC= 1.00D-01 BMatC= 7.89D-11 BMatP= 1.37D-09
 IDIUse=1 WtCom= 1.00D+00 WtEn= 0.00D+00
 Coeff-Com: -0.207D-04 0.319D-04 0.199D-03 0.467D-03-0.132D-02-0.434D-02
 Coeff-Com:  0.882D-02 0.209D-01-0.870D-01-0.182D+00 0.124D+01
 Coeff:     -0.207D-04 0.319D-04 0.199D-03 0.467D-03-0.132D-02-0.434D-02
 Coeff:      0.882D-02 0.209D-01-0.870D-01-0.182D+00 0.124D+01
 Gap=     0.184 Goal=   None    Shift=    0.000
 RMSDP=1.13D-06 MaxDP=4.90D-05 DE=-5.80D-09 OVMax= 1.20D-05

 Cycle  12  Pass 1  IDiag  1:
 E= -294.425500194422     Delta-E=       -0.000000000315 Rises=F Damp=F
 DIIS: error= 1.35D-07 at cycle  12 NSaved=  12.
 NSaved=12 IEnMin=12 EnMin= -294.425500194422     IErMin=12 ErrMin= 1.35D-07
 ErrMax= 1.35D-07 EMaxC= 1.00D-01 BMatC= 1.63D-12 BMatP= 7.89D-11
 IDIUse=1 WtCom= 1.00D+00 WtEn= 0.00D+00
 Coeff-Com: -0.132D-05 0.193D-05 0.764D-05 0.210D-04-0.978D-05-0.331D-03
 Coeff-Com: -0.915D-03 0.278D-02 0.815D-02-0.146D-01-0.118D+00 0.112D+01
 Coeff:     -0.132D-05 0.193D-05 0.764D-05 0.210D-04-0.978D-05-0.331D-03
 Coeff:     -0.915D-03 0.278D-02 0.815D-02-0.146D-01-0.118D+00 0.112D+01
 Gap=     0.184 Goal=   None    Shift=    0.000
 RMSDP=1.68D-07 MaxDP=1.30D-05 DE=-3.15D-10 OVMax= 1.78D-06

 Cycle  13  Pass 1  IDiag  1:
 E= -294.425500194428     Delta-E=       -0.000000000006 Rises=F Damp=F
 DIIS: error= 2.58D-08 at cycle  13 NSaved=  13.
 NSaved=13 IEnMin=13 EnMin= -294.425500194428     IErMin=13 ErrMin= 2.58D-08
 ErrMax= 2.58D-08 EMaxC= 1.00D-01 BMatC= 2.06D-13 BMatP= 1.63D-12
 IDIUse=1 WtCom= 1.00D+00 WtEn= 0.00D+00
 Coeff-Com:  0.131D-05-0.208D-05-0.124D-04-0.294D-04 0.945D-04 0.254D-03
 Coeff-Com: -0.676D-03-0.102D-02 0.752D-02 0.109D-01-0.107D+00 0.199D+00
 Coeff-Com:  0.890D+00
 Coeff:      0.131D-05-0.208D-05-0.124D-04-0.294D-04 0.945D-04 0.254D-03
 Coeff:     -0.676D-03-0.102D-02 0.752D-02 0.109D-01-0.107D+00 0.199D+00
 Coeff:      0.890D+00
 Gap=     0.184 Goal=   None    Shift=    0.000
 RMSDP=3.26D-08 MaxDP=1.40D-06 DE=-6.37D-12 OVMax= 4.32D-07

 Cycle  14  Pass 1  IDiag  1:
 E= -294.425500194429     Delta-E=       -0.000000000001 Rises=F Damp=F
 DIIS: error= 1.77D-08 at cycle  14 NSaved=  14.
 NSaved=14 IEnMin=14 EnMin= -294.425500194429     IErMin=14 ErrMin= 1.77D-08
 ErrMax= 1.77D-08 EMaxC= 1.00D-01 BMatC= 1.32D-14 BMatP= 2.06D-13
 IDIUse=1 WtCom= 1.00D+00 WtEn= 0.00D+00
 Coeff-Com:  0.104D-06-0.202D-06 0.654D-06 0.746D-06-0.805D-05 0.649D-06
 Coeff-Com:  0.135D-03-0.187D-03-0.124D-02 0.311D-03 0.165D-01-0.885D-01
 Coeff-Com: -0.103D+00 0.118D+01
 Coeff:      0.104D-06-0.202D-06 0.654D-06 0.746D-06-0.805D-05 0.649D-06
 Coeff:      0.135D-03-0.187D-03-0.124D-02 0.311D-03 0.165D-01-0.885D-01
 Coeff:     -0.103D+00 0.118D+01
 Gap=     0.184 Goal=   None    Shift=    0.000
 RMSDP=1.36D-08 MaxDP=5.51D-07 DE=-6.82D-13 OVMax= 2.37D-07

 Cycle  15  Pass 1  IDiag  1:
 E= -294.425500194434     Delta-E=       -0.000000000006 Rises=F Damp=F
 DIIS: error= 1.30D-08 at cycle  15 NSaved=  15.
 NSaved=15 IEnMin=15 EnMin= -294.425500194434     IErMin=15 ErrMin= 1.30D-08
 ErrMax= 1.30D-08 EMaxC= 1.00D-01 BMatC= 2.71D-15 BMatP= 1.32D-14
 IDIUse=1 WtCom= 1.00D+00 WtEn= 0.00D+00
 Coeff-Com: -0.102D-06 0.170D-06 0.578D-06 0.159D-05-0.227D-05-0.191D-04
 Coeff-Com:  0.294D-05 0.119D-03-0.694D-04-0.831D-03 0.136D-02 0.194D-01
 Coeff-Com: -0.377D-01-0.435D+00 0.145D+01
 Coeff:     -0.102D-06 0.170D-06 0.578D-06 0.159D-05-0.227D-05-0.191D-04
 Coeff:      0.294D-05 0.119D-03-0.694D-04-0.831D-03 0.136D-02 0.194D-01
 Coeff:     -0.377D-01-0.435D+00 0.145D+01
 Gap=     0.184 Goal=   None    Shift=    0.000
 RMSDP=5.90D-09 MaxDP=4.06D-07 DE=-5.57D-12 OVMax= 1.87D-07

 SCF Done:  E(RHF) =  -294.425500194     A.U. after   15 cycles
             Convg  =    0.5896D-08             -V/T =  2.0011
 KE= 2.941135037394D+02 PE=-1.306507174087D+03 EE= 4.118908670072D+02
 Leave Link  502 at Tue Dec 21 19:10:43 2021, MaxMem=  498073600 cpu:      91.2
 (Enter /apps/software//g09/l801.exe)
 ExpMin= 3.15D-02 ExpMax= 4.56D+03 ExpMxC= 6.82D+02 IAcc=3 IRadAn=         5 AccDes= 0.00D+00
 HarFok:  IExCor=  205 AccDes= 0.00D+00 IRadAn=         5 IDoV=-2
 ScaDFX=  1.000000  1.000000  1.000000  1.000000
 Largest valence mixing into a core orbital is  1.86D-04
 Largest core mixing into a valence orbital is  4.33D-05
 Range of M.O.s used for correlation:     9   232
 NBasis=   232 NAE=    28 NBE=    28 NFC=     8 NFV=     0
 NROrb=    224 NOA=    20 NOB=    20 NVA=   204 NVB=   204

 **** Warning!!: The largest alpha MO coefficient is  0.20361180D+03

 Leave Link  801 at Tue Dec 21 19:10:44 2021, MaxMem=  498073600 cpu:       1.1
 (Enter /apps/software//g09/l906.exe)
 Frozen-core derivative calculation, NFC=   8 NFV=   0.
 FulOut=F Deriv=T AODrv=F NAtomX=    16
   MMem=          71  MDisk=          20 MDiskD=          20
  W3Min=     1559040 MinDsk=     2159240 NBas6D=         240
 NBas2D=       29256    NTT=       28920    LW2=     2040000
    MDV=   497391792 MDiskM=       28668 NBas2p=       28436
 Fully direct method using O(ONN) memory.
 IMap=   1   2   3   4   5   6   7   8   9  10  11  12  13  14  15  16  17  18  19  20
 IMap=  21  22  23  24  25  26  27  28
 JobTyp=1 Pass  1:  I=   9 to  18 NPSUse=  6 ParTrn=T ParDer=T DoDerP=T.
 JobTyp=1 Pass  2:  I=  19 to  28 NPSUse=  6 ParTrn=T ParDer=T DoDerP=T.
 Spin components of T(2) and E(2):
     alpha-alpha T2 =       0.5359923361D-01 E2=     -0.1358189516D+00
     alpha-beta  T2 =       0.3041767903D+00 E2=     -0.8057232434D+00
     beta-beta   T2 =       0.5359923361D-01 E2=     -0.1358189516D+00
 The integrals were generated   2 times.
 ANorm=    0.1188013155D+01
 E2 =    -0.1077361147D+01 EUMP2 =    -0.29550286134098D+03
 Leave Link  906 at Tue Dec 21 19:11:08 2021, MaxMem=  498073600 cpu:     148.5
 (Enter /apps/software//g09/l1002.exe)
 Minotr:  Closed shell wavefunction.
          Computing MP2/KS-MP2 derivatives.
          Using Z-Vector for PSCF gradient.
          Skipping F1 and S1 gradient terms here.
          Frozen-core window.
          Direct CPHF calculation.
          Differentiating once with respect to electric field.
                with respect to dipole field.
          Electric field/nuclear overlap derivatives assumed to be zero.
          Using symmetry in CPHF.
          Requested convergence is 1.0D-10 RMS, and 1.0D-09 maximum.
          NewPWx=F KeepS1=T KeepF1=T KeepIn=T MapXYZ=F SortEE=F KeepMc=T.
          MDV=     498073468 using IRadAn=       0.
          Keep R1 ints in memory in canonical form, NReq=419019441.
 Symmetry not used in FoFDir.
 MinBra= 0 MaxBra= 2 Meth= 1.
 IRaf=       0 NMat=   1 IRICut=       1 DoRegI=T DoRafI=F ISym2E= 0 JSym2E=0.
          Solving linear equations separately, MaxMat=       0.
          There are     1 degrees of freedom in the 1st order CPHF.  IDoFFX=0.
 LinEq1:  Iter=  0 NonCon=     1 RMS=3.85D-03 Max=7.59D-02
 AX will form     1 AO Fock derivatives at one time.
 LinEq1:  Iter=  1 NonCon=     1 RMS=8.91D-04 Max=2.13D-02
 LinEq1:  Iter=  2 NonCon=     1 RMS=3.82D-04 Max=7.45D-03
 LinEq1:  Iter=  3 NonCon=     1 RMS=1.54D-04 Max=4.44D-03
 LinEq1:  Iter=  4 NonCon=     1 RMS=4.87D-05 Max=1.10D-03
 LinEq1:  Iter=  5 NonCon=     1 RMS=1.71D-05 Max=3.18D-04
 LinEq1:  Iter=  6 NonCon=     1 RMS=6.05D-06 Max=9.66D-05
 LinEq1:  Iter=  7 NonCon=     1 RMS=1.52D-06 Max=2.69D-05
 LinEq1:  Iter=  8 NonCon=     1 RMS=3.78D-07 Max=5.76D-06
 LinEq1:  Iter=  9 NonCon=     1 RMS=1.34D-07 Max=2.74D-06
 LinEq1:  Iter= 10 NonCon=     1 RMS=3.24D-08 Max=8.99D-07
 LinEq1:  Iter= 11 NonCon=     1 RMS=8.51D-09 Max=2.57D-07
 LinEq1:  Iter= 12 NonCon=     1 RMS=3.84D-09 Max=1.54D-07
 LinEq1:  Iter= 13 NonCon=     1 RMS=1.48D-09 Max=5.73D-08
 LinEq1:  Iter= 14 NonCon=     1 RMS=3.63D-10 Max=7.08D-09
 LinEq1:  Iter= 15 NonCon=     1 RMS=7.08D-11 Max=1.40D-09
 LinEq1:  Iter= 16 NonCon=     0 RMS=1.11D-11 Max=2.61D-10
 Linear equations converged to 1.000D-10 1.000D-09 after    16 iterations.
 End of Minotr Frequency-dependent properties file   721 does not exist.
 End of Minotr Frequency-dependent properties file   722 does not exist.
 Leave Link 1002 at Tue Dec 21 19:11:25 2021, MaxMem=  498073600 cpu:      97.4
 (Enter /apps/software//g09/l601.exe)
 Copying SCF densities to generalized density rwf, IOpCl= 0 IROHF=0.

 **********************************************************************

            Population analysis using the MP2 density.

 **********************************************************************

 Orbital symmetries:
       Occupied  (A') (A') (A') (A') (A') (A') (A') (A') (A') (A')
                 (A') (A') (A') (A') (A') (A') (A') (A') (A') (A')
                 (A') (A") (A') (A') (A') (A") (A") (A")
       Virtual   (A') (A') (A') (A') (A') (A') (A') (A") (A') (A')
                 (A") (A') (A') (A") (A") (A') (A") (A') (A') (A")
                 (A') (A') (A") (A') (A") (A') (A') (A') (A") (A')
                 (A') (A") (A') (A') (A') (A') (A') (A') (A') (A')
                 (A') (A') (A") (A') (A") (A') (A') (A') (A') (A')
                 (A') (A') (A') (A') (A') (A') (A') (A') (A') (A')
                 (A") (A') (A') (A") (A') (A') (A') (A') (A") (A')
                 (A") (A') (A") (A') (A") (A') (A") (A') (A') (A')
                 (A") (A') (A') (A') (A') (A') (A') (A") (A') (A')
                 (A') (A') (A") (A') (A') (A') (A') (A') (A") (A')
                 (A') (A") (A") (A") (A") (A') (A') (A") (A') (A')
                 (A') (A") (A') (A') (A') (A') (A") (A') (A') (A")
                 (A") (A") (A') (A') (A') (A') (A") (A') (A") (A")
                 (A") (A') (A') (A") (A') (A') (A') (A") (A') (A")
                 (A') (A') (A") (A") (A') (A') (A') (A') (A") (A")
                 (A') (A') (A") (A') (A') (A') (A') (A') (A') (A')
                 (A') (A') (A') (A') (A') (A') (A") (A') (A') (A')
                 (A') (A") (A") (A') (A') (A") (A") (A") (A') (A")
                 (A') (A') (A') (A') (A') (A') (A') (A') (A') (A')
                 (A') (A') (A') (A') (A') (A') (A') (A') (A') (A')
                 (A') (A') (A') (A')
 The electronic state is 1-A'.
 Alpha  occ. eigenvalues --  -11.08370 -11.08370 -11.08345 -11.08188 -11.05630
 Alpha  occ. eigenvalues --  -11.05628 -11.01191  -7.37139  -0.95288  -0.87198
 Alpha  occ. eigenvalues --   -0.86702  -0.72747  -0.70230  -0.55079  -0.54304
 Alpha  occ. eigenvalues --   -0.53461  -0.47422  -0.44220  -0.40430  -0.37835
 Alpha  occ. eigenvalues --   -0.36605  -0.32129  -0.30038  -0.28789  -0.27404
 Alpha  occ. eigenvalues --   -0.21638  -0.21482  -0.04735
 Alpha virt. eigenvalues --    0.13701   0.14245   0.15155   0.16010   0.16560
 Alpha virt. eigenvalues --    0.17882   0.18824   0.19002   0.20911   0.21427
 Alpha virt. eigenvalues --    0.22036   0.24847   0.24854   0.25934   0.27527
 Alpha virt. eigenvalues --    0.28979   0.29198   0.29317   0.29344   0.30207
 Alpha virt. eigenvalues --    0.30412   0.31013   0.31597   0.32777   0.33231
 Alpha virt. eigenvalues --    0.33765   0.34213   0.34611   0.34871   0.36900
 Alpha virt. eigenvalues --    0.37054   0.37128   0.37959   0.39168   0.39303
 Alpha virt. eigenvalues --    0.41061   0.42416   0.42967   0.43094   0.44268
 Alpha virt. eigenvalues --    0.45625   0.46786   0.47447   0.47925   0.48249
 Alpha virt. eigenvalues --    0.51212   0.52076   0.53571   0.54484   0.56993
 Alpha virt. eigenvalues --    0.57226   0.59231   0.59824   0.61485   0.63887
 Alpha virt. eigenvalues --    0.71571   0.71779   0.73069   0.76563   0.76867
 Alpha virt. eigenvalues --    0.77521   0.84154   0.85648   0.86635   0.86953
 Alpha virt. eigenvalues --    0.88336   0.90732   0.91128   0.91892   0.91912
 Alpha virt. eigenvalues --    0.93386   0.96608   0.97183   0.99133   1.00511
 Alpha virt. eigenvalues --    1.01806   1.02591   1.03964   1.04206   1.05397
 Alpha virt. eigenvalues --    1.06528   1.10878   1.11766   1.13752   1.14996
 Alpha virt. eigenvalues --    1.15390   1.17864   1.19886   1.21038   1.21121
 Alpha virt. eigenvalues --    1.22032   1.23051   1.27183   1.28884   1.29419
 Alpha virt. eigenvalues --    1.30998   1.32362   1.36314   1.38575   1.40237
 Alpha virt. eigenvalues --    1.43480   1.44335   1.45862   1.47435   1.53063
 Alpha virt. eigenvalues --    1.53571   1.55115   1.57714   1.60239   1.74238
 Alpha virt. eigenvalues --    1.76178   1.81903   1.85042   1.88076   1.91410
 Alpha virt. eigenvalues --    1.94210   1.95057   1.97336   2.00475   2.01235
 Alpha virt. eigenvalues --    2.04350   2.08237   2.08698   2.11900   2.11915
 Alpha virt. eigenvalues --    2.16685   2.17046   2.18253   2.19231   2.19531
 Alpha virt. eigenvalues --    2.20842   2.23277   2.27441   2.33241   2.35274
 Alpha virt. eigenvalues --    2.37745   2.39418   2.39927   2.40044   2.45239
 Alpha virt. eigenvalues --    2.46415   2.48930   2.52170   2.53492   2.54689
 Alpha virt. eigenvalues --    2.62131   2.62300   2.66977   2.66978   2.68615
 Alpha virt. eigenvalues --    2.72513   2.87085   2.91431   2.92779   2.93251
 Alpha virt. eigenvalues --    2.94867   3.03785   3.09452   3.10623   3.13066
 Alpha virt. eigenvalues --    3.14107   3.15186   3.15711   3.16155   3.18840
 Alpha virt. eigenvalues --    3.19489   3.21873   3.22614   3.23594   3.25006
 Alpha virt. eigenvalues --    3.29830   3.36179   3.37413   3.39451   3.41353
 Alpha virt. eigenvalues --    3.43704   3.47173   3.55343   3.55374   3.56835
 Alpha virt. eigenvalues --    3.72827   3.78236   3.81921   3.85239   3.92804
 Alpha virt. eigenvalues --    3.98321   4.05180   4.12139   4.13896   4.53106
 Alpha virt. eigenvalues --    4.53535   4.57498   4.57984   4.80922   4.84584
 Alpha virt. eigenvalues --    5.40593  15.80674  24.91824  25.14081  25.14112
 Alpha virt. eigenvalues --   25.26565  25.50325  25.52956  25.54935
          Condensed to atoms (all electrons):
              1          2          3          4          5          6
     1  C   14.433279  -6.407199  -6.507883   4.404506  -2.189807  -1.728845
     2  C   -6.407199  16.737464   4.404531  -2.058810  -1.533935   1.905502
     3  C   -6.507883   4.404531  14.433230  -6.407099   3.912010  -1.728707
     4  C    4.404506  -2.058810  -6.407099  16.737695  -6.686706   1.901523
     5  C   -2.189807  -1.533935   3.912010  -6.686706  16.086819  -6.813103
     6  C   -1.728845   1.905502  -1.728707   1.901523  -6.813103  20.171667
     7  C    3.912134  -6.688293  -2.190092  -1.531948   2.442602  -6.809883
     8  H   -0.087367   0.008358   0.280311  -0.612444   0.885975  -0.528957
     9  H    0.280269  -0.612598  -0.087407   0.008505   0.257633  -0.528736
    10  H   -0.507769   0.913982   0.225407  -0.066377  -0.039158   0.173140
    11  H    0.882787  -0.483622  -0.498728   0.182263  -0.050066  -0.037842
    12  H   -0.498764   0.182266   0.882820  -0.483638   0.237528  -0.037847
    13  H    0.225374  -0.066336  -0.507729   0.913990  -0.461899   0.173156
    14  B   -0.032489   0.131739  -0.032538   0.131661  -0.135226   0.351090
    15  H   -0.013839   0.005981   0.011259   0.068932   0.166959  -0.128511
    16  H    0.011249   0.068913  -0.013849   0.006011  -0.218328  -0.128052
              7          8          9         10         11         12
     1  C    3.912134  -0.087367   0.280269  -0.507769   0.882787  -0.498764
     2  C   -6.688293   0.008358  -0.612598   0.913982  -0.483622   0.182266
     3  C   -2.190092   0.280311  -0.087407   0.225407  -0.498728   0.882820
     4  C   -1.531948  -0.612444   0.008505  -0.066377   0.182263  -0.483638
     5  C    2.442602   0.885975   0.257633  -0.039158  -0.050066   0.237528
     6  C   -6.809883  -0.528957  -0.528736   0.173140  -0.037842  -0.037847
     7  C   16.083795   0.257555   0.885728  -0.461851   0.237514  -0.050072
     8  H    0.257555   0.773947   0.004041  -0.000203  -0.002066   0.011628
     9  H    0.885728   0.004041   0.773911  -0.068639   0.011627  -0.002066
    10  H   -0.461851  -0.000203  -0.068639   0.734111  -0.043416   0.006783
    11  H    0.237514  -0.002066   0.011627  -0.043416   0.730523  -0.054135
    12  H   -0.050072   0.011628  -0.002066   0.006783  -0.054135   0.730571
    13  H   -0.039173  -0.068640  -0.000204  -0.001122   0.006782  -0.043422
    14  B   -0.135199  -0.088244  -0.088192   0.012592  -0.001780  -0.001783
    15  H   -0.218264  -0.010458  -0.014308   0.001674  -0.000585   0.000294
    16  H    0.166555  -0.014344  -0.010472   0.000833   0.000295  -0.000586
             13         14         15         16
     1  C    0.225374  -0.032489  -0.013839   0.011249
     2  C   -0.066336   0.131739   0.005981   0.068913
     3  C   -0.507729  -0.032538   0.011259  -0.013849
     4  C    0.913990   0.131661   0.068932   0.006011
     5  C   -0.461899  -0.135226   0.166959  -0.218328
     6  C    0.173156   0.351090  -0.128511  -0.128052
     7  C   -0.039173  -0.135199  -0.218264   0.166555
     8  H   -0.068640  -0.088244  -0.010458  -0.014344
     9  H   -0.000204  -0.088192  -0.014308  -0.010472
    10  H   -0.001122   0.012592   0.001674   0.000833
    11  H    0.006782  -0.001780  -0.000585   0.000295
    12  H   -0.043422  -0.001783   0.000294  -0.000586
    13  H    0.734087   0.012601   0.000833   0.001676
    14  B    0.012601   4.249364   0.449970   0.450052
    15  H    0.000833   0.449970   0.872159  -0.045110
    16  H    0.001676   0.450052  -0.045110   0.872095
 Mulliken atomic charges:
              1
     1  C   -0.175637
     2  C   -0.507942
     3  C   -0.175535
     4  C   -0.508064
     5  C    0.138701
     6  C   -0.205596
     7  C    0.138891
     8  H    0.190909
     9  H    0.190907
    10  H    0.120013
    11  H    0.120447
    12  H    0.120422
    13  H    0.120026
    14  B   -0.273620
    15  H   -0.146986
    16  H   -0.146938
 Sum of Mulliken atomic charges =  -1.00000
 Mulliken charges with hydrogens summed into heavy atoms:
              1
     1  C   -0.055189
     2  C   -0.387929
     3  C   -0.055113
     4  C   -0.388038
     5  C    0.329610
     6  C   -0.205596
     7  C    0.329798
    14  B   -0.567543
 Sum of Mulliken charges with hydrogens summed into heavy atoms =  -1.00000
 Electronic spatial extent (au):  <R**2>=            971.6544
 Charge=             -1.0000 electrons
 Dipole moment (field-independent basis, Debye):
    X=              0.0012    Y=             -5.9649    Z=              0.0000  Tot=              5.9649
 Quadrupole moment (field-independent basis, Debye-Ang):
   XX=            -58.1739   YY=            -80.9235   ZZ=            -60.6148
   XY=              0.0035   XZ=              0.0000   YZ=              0.0000
 Traceless Quadrupole moment (field-independent basis, Debye-Ang):
   XX=              8.3968   YY=            -14.3528   ZZ=              5.9560
   XY=              0.0035   XZ=              0.0000   YZ=              0.0000
 Octapole moment (field-independent basis, Debye-Ang**2):
  XXX=              0.0055  YYY=           -103.9229  ZZZ=              0.0000  XYY=              0.0144
  XXY=            -12.1614  XXZ=              0.0000  XZZ=              0.0016  YZZ=             -8.4822
  YYZ=              0.0000  XYZ=              0.0000
 Hexadecapole moment (field-independent basis, Debye-Ang**3):
 XXXX=           -532.0954 YYYY=          -1320.9594 ZZZZ=            -96.4483 XXXY=              0.0241
 XXXZ=              0.0000 YYYX=              0.0613 YYYZ=              0.0000 ZZZX=              0.0000
 ZZZY=              0.0000 XXYY=           -277.3642 XXZZ=           -116.8255 YYZZ=           -210.4428
 XXYZ=              0.0000 YYXZ=              0.0000 ZZXY=              0.0067
 N-N= 3.060773031459D+02 E-N=-1.307353695297D+03  KE= 2.953783626268D+02
 Symmetry A'   KE= 2.872427750953D+02
 Symmetry A"   KE= 8.135587531492D+00
 No NMR shielding tensors so no spin-rotation constants.
 Leave Link  601 at Tue Dec 21 19:11:25 2021, MaxMem=  498073600 cpu:       1.4
 (Enter /apps/software//g09/l9999.exe)
 1\1\GINC-DLT02\SP\RMP2-FC\6-311++G(d,p)\C7H8B1(1-)\ITAMAR\21-Dec-2021\
 0\\#P MP2/6-311++G** DENSITY=MP2\\Hepta-O\\-1,1\C,0,0.674071,-1.873641
 ,0.\C,0,1.580627,-0.718739,0.\C,0,-0.674082,-1.873542,0.\C,0,-1.580593
 ,-0.718697,0.\C,0,-1.267649,0.605334,0.\C,0,0.,1.331685,0.\C,0,1.26773
 4,0.605251,0.\H,0,-2.130883,1.271808,0.\H,0,2.130962,1.271749,0.\H,0,2
 .639591,-0.970998,0.\H,0,1.164683,-2.84654,0.\H,0,-1.164756,-2.84643,0
 .\H,0,-2.639558,-0.970915,0.\B,0,-0.000009,2.811642,0.\H,0,-1.034012,3
 .443412,0.\H,0,1.033375,3.443796,0.\\Version=EM64L-G09RevA.02\State=1-
 A'\HF=-294.4255002\MP2=-295.5028613\RMSD=5.896e-09\Dipole=0.0004819,-2
 .346774,0.\Quadrupole=6.2428351,-10.670941,4.4281059,0.0025925,0.,0.\P
 G=CS [SG(C7H8B1)]\\@


 I WANT IT ALL - RICH, THIN, AND CHOCOLATE.
 Job cpu time:  0 days  0 hours  5 minutes 45.0 seconds.
 File lengths (MBytes):  RWF=     25 Int=      0 D2E=      0 Chk=      5 Scr=      1
 Normal termination of Gaussian 09 at Tue Dec 21 19:11:25 2021.
