Pyramid-5                                                               
SP        RMP2-FC                                                     6-311++G(d,p)       
Number of atoms                            I               12
Info1-9                                    I   N=           9
          22          21           0           0           0         110
           1           2           1
Charge                                     I                0
Multiplicity                               I                1
Number of electrons                        I               42
Number of alpha electrons                  I               21
Number of beta electrons                   I               21
Number of basis functions                  I              174
Number of independent functions            I              173
Number of point charges in /Mol/           I                0
Number of translation vectors              I                0
Atomic numbers                             I   N=          12
           6           6           6           6           6           6
           1           1           1           1           1           1
Nuclear charges                            R   N=          12
  6.00000000E+00  6.00000000E+00  6.00000000E+00  6.00000000E+00  6.00000000E+00
  6.00000000E+00  1.00000000E+00  1.00000000E+00  1.00000000E+00  1.00000000E+00
  1.00000000E+00  1.00000000E+00
Current cartesian coordinates              R   N=          36
 -2.28266685E+00  1.31791908E+00 -2.54888061E-02 -2.28266685E+00 -1.31791908E+00
 -2.54888061E-02  0.00000000E+00 -2.63593635E+00 -2.55700643E-02  2.28266685E+00
 -1.31791908E+00 -2.54888061E-02  2.28266685E+00  1.31791908E+00 -2.54888061E-02
  6.66133815E-16  2.63593635E+00 -2.55700643E-02 -4.05076087E+00  2.33867458E+00
  1.53126218E-01 -4.05076087E+00 -2.33867458E+00  1.53126218E-01  0.00000000E+00
 -4.67752277E+00  1.53046850E-01  4.05076087E+00 -2.33867458E+00  1.53126218E-01
  4.05076087E+00  2.33867458E+00  1.53126218E-01  1.33226763E-15  4.67752277E+00
  1.53046850E-01
Force Field                                I                0
Int Atom Types                             I   N=          12
           0           0           0           0           0           0
           0           0           0           0           0           0
MM charges                                 R   N=          12
  0.00000000E+00  0.00000000E+00  0.00000000E+00  0.00000000E+00  0.00000000E+00
  0.00000000E+00  0.00000000E+00  0.00000000E+00  0.00000000E+00  0.00000000E+00
  0.00000000E+00  0.00000000E+00
Integer atomic weights                     I   N=          12
          12          12          12          12          12          12
           1           1           1           1           1           1
Real atomic weights                        R   N=          12
  1.20000000E+01  1.20000000E+01  1.20000000E+01  1.20000000E+01  1.20000000E+01
  1.20000000E+01  1.00782504E+00  1.00782504E+00  1.00782504E+00  1.00782504E+00
  1.00782504E+00  1.00782504E+00
Atom fragment info                         I   N=          12
           0           0           0           0           0           0
           0           0           0           0           0           0
Atom residue num                           I   N=          12
           0           0           0           0           0           0
           0           0           0           0           0           0
Nuclear spins                              I   N=          12
           0           0           0           0           0           0
           1           1           1           1           1           1
Nuclear ZEff                               R   N=          12
 -3.60000000E+00 -3.60000000E+00 -3.60000000E+00 -3.60000000E+00 -3.60000000E+00
 -3.60000000E+00 -1.00000000E+00 -1.00000000E+00 -1.00000000E+00 -1.00000000E+00
 -1.00000000E+00 -1.00000000E+00
Nuclear QMom                               R   N=          12
  0.00000000E+00  0.00000000E+00  0.00000000E+00  0.00000000E+00  0.00000000E+00
  0.00000000E+00  0.00000000E+00  0.00000000E+00  0.00000000E+00  0.00000000E+00
  0.00000000E+00  0.00000000E+00
Nuclear GFac                               R   N=          12
  0.00000000E+00  0.00000000E+00  0.00000000E+00  0.00000000E+00  0.00000000E+00
  0.00000000E+00  2.79284600E+00  2.79284600E+00  2.79284600E+00  2.79284600E+00
  2.79284600E+00  2.79284600E+00
MicOpt                                     I   N=          12
          -1          -1          -1          -1          -1          -1
          -1          -1          -1          -1          -1          -1
Number of contracted shells                I               66
Number of primitive shells                 I              120
Pure/Cartesian d shells                    I                0
Pure/Cartesian f shells                    I                0
Highest angular momentum                   I                2
Largest degree of contraction              I                6
Shell types                                I   N=          66
           0          -1          -1          -1          -1          -2
           0          -1          -1          -1          -1          -2
           0          -1          -1          -1          -1          -2
           0          -1          -1          -1          -1          -2
           0          -1          -1          -1          -1          -2
           0          -1          -1          -1          -1          -2
           0           0           0           0           1           0
           0           0           0           1           0           0
           0           0           1           0           0           0
           0           1           0           0           0           0
           1           0           0           0           0           1
Number of primitives per shell             I   N=          66
           6           3           1           1           1           1
           6           3           1           1           1           1
           6           3           1           1           1           1
           6           3           1           1           1           1
           6           3           1           1           1           1
           6           3           1           1           1           1
           3           1           1           1           1           3
           1           1           1           1           3           1
           1           1           1           3           1           1
           1           1           3           1           1           1
           1           3           1           1           1           1
Shell to atom map                          I   N=          66
           1           1           1           1           1           1
           2           2           2           2           2           2
           3           3           3           3           3           3
           4           4           4           4           4           4
           5           5           5           5           5           5
           6           6           6           6           6           6
           7           7           7           7           7           8
           8           8           8           8           9           9
           9           9           9          10          10          10
          10          10          11          11          11          11
          11          12          12          12          12          12
Primitive exponents                        R   N=         120
  4.56324000E+03  6.82024000E+02  1.54973000E+02  4.44553000E+01  1.30290000E+01
  1.82773000E+00  2.09642000E+01  4.80331000E+00  1.45933000E+00  4.83456000E-01
  1.45585000E-01  4.38000000E-02  6.26000000E-01  4.56324000E+03  6.82024000E+02
  1.54973000E+02  4.44553000E+01  1.30290000E+01  1.82773000E+00  2.09642000E+01
  4.80331000E+00  1.45933000E+00  4.83456000E-01  1.45585000E-01  4.38000000E-02
  6.26000000E-01  4.56324000E+03  6.82024000E+02  1.54973000E+02  4.44553000E+01
  1.30290000E+01  1.82773000E+00  2.09642000E+01  4.80331000E+00  1.45933000E+00
  4.83456000E-01  1.45585000E-01  4.38000000E-02  6.26000000E-01  4.56324000E+03
  6.82024000E+02  1.54973000E+02  4.44553000E+01  1.30290000E+01  1.82773000E+00
  2.09642000E+01  4.80331000E+00  1.45933000E+00  4.83456000E-01  1.45585000E-01
  4.38000000E-02  6.26000000E-01  4.56324000E+03  6.82024000E+02  1.54973000E+02
  4.44553000E+01  1.30290000E+01  1.82773000E+00  2.09642000E+01  4.80331000E+00
  1.45933000E+00  4.83456000E-01  1.45585000E-01  4.38000000E-02  6.26000000E-01
  4.56324000E+03  6.82024000E+02  1.54973000E+02  4.44553000E+01  1.30290000E+01
  1.82773000E+00  2.09642000E+01  4.80331000E+00  1.45933000E+00  4.83456000E-01
  1.45585000E-01  4.38000000E-02  6.26000000E-01  3.38650000E+01  5.09479000E+00
  1.15879000E+00  3.25840000E-01  1.02741000E-01  3.60000000E-02  7.50000000E-01
  3.38650000E+01  5.09479000E+00  1.15879000E+00  3.25840000E-01  1.02741000E-01
  3.60000000E-02  7.50000000E-01  3.38650000E+01  5.09479000E+00  1.15879000E+00
  3.25840000E-01  1.02741000E-01  3.60000000E-02  7.50000000E-01  3.38650000E+01
  5.09479000E+00  1.15879000E+00  3.25840000E-01  1.02741000E-01  3.60000000E-02
  7.50000000E-01  3.38650000E+01  5.09479000E+00  1.15879000E+00  3.25840000E-01
  1.02741000E-01  3.60000000E-02  7.50000000E-01  3.38650000E+01  5.09479000E+00
  1.15879000E+00  3.25840000E-01  1.02741000E-01  3.60000000E-02  7.50000000E-01
Contraction coefficients                   R   N=         120
  1.96665025E-03  1.52306019E-02  7.61269097E-02  2.60801033E-01  6.16462078E-01
  2.21006028E-01  1.14660081E-01  9.19999648E-01 -3.03068213E-03  1.00000000E+00
  1.00000000E+00  1.00000000E+00  1.00000000E+00  1.96665025E-03  1.52306019E-02
  7.61269097E-02  2.60801033E-01  6.16462078E-01  2.21006028E-01  1.14660081E-01
  9.19999648E-01 -3.03068213E-03  1.00000000E+00  1.00000000E+00  1.00000000E+00
  1.00000000E+00  1.96665025E-03  1.52306019E-02  7.61269097E-02  2.60801033E-01
  6.16462078E-01  2.21006028E-01  1.14660081E-01  9.19999648E-01 -3.03068213E-03
  1.00000000E+00  1.00000000E+00  1.00000000E+00  1.00000000E+00  1.96665025E-03
  1.52306019E-02  7.61269097E-02  2.60801033E-01  6.16462078E-01  2.21006028E-01
  1.14660081E-01  9.19999648E-01 -3.03068213E-03  1.00000000E+00  1.00000000E+00
  1.00000000E+00  1.00000000E+00  1.96665025E-03  1.52306019E-02  7.61269097E-02
  2.60801033E-01  6.16462078E-01  2.21006028E-01  1.14660081E-01  9.19999648E-01
 -3.03068213E-03  1.00000000E+00  1.00000000E+00  1.00000000E+00  1.00000000E+00
  1.96665025E-03  1.52306019E-02  7.61269097E-02  2.60801033E-01  6.16462078E-01
  2.21006028E-01  1.14660081E-01  9.19999648E-01 -3.03068213E-03  1.00000000E+00
  1.00000000E+00  1.00000000E+00  1.00000000E+00  2.54938145E-02  1.90373109E-01
  8.52161486E-01  1.00000000E+00  1.00000000E+00  1.00000000E+00  1.00000000E+00
  2.54938145E-02  1.90373109E-01  8.52161486E-01  1.00000000E+00  1.00000000E+00
  1.00000000E+00  1.00000000E+00  2.54938145E-02  1.90373109E-01  8.52161486E-01
  1.00000000E+00  1.00000000E+00  1.00000000E+00  1.00000000E+00  2.54938145E-02
  1.90373109E-01  8.52161486E-01  1.00000000E+00  1.00000000E+00  1.00000000E+00
  1.00000000E+00  2.54938145E-02  1.90373109E-01  8.52161486E-01  1.00000000E+00
  1.00000000E+00  1.00000000E+00  1.00000000E+00  2.54938145E-02  1.90373109E-01
  8.52161486E-01  1.00000000E+00  1.00000000E+00  1.00000000E+00  1.00000000E+00
P(S=P) Contraction coefficients            R   N=         120
  0.00000000E+00  0.00000000E+00  0.00000000E+00  0.00000000E+00  0.00000000E+00
  0.00000000E+00  4.02486927E-02  2.37593957E-01  8.15853851E-01  1.00000000E+00
  1.00000000E+00  1.00000000E+00  0.00000000E+00  0.00000000E+00  0.00000000E+00
  0.00000000E+00  0.00000000E+00  0.00000000E+00  0.00000000E+00  4.02486927E-02
  2.37593957E-01  8.15853851E-01  1.00000000E+00  1.00000000E+00  1.00000000E+00
  0.00000000E+00  0.00000000E+00  0.00000000E+00  0.00000000E+00  0.00000000E+00
  0.00000000E+00  0.00000000E+00  4.02486927E-02  2.37593957E-01  8.15853851E-01
  1.00000000E+00  1.00000000E+00  1.00000000E+00  0.00000000E+00  0.00000000E+00
  0.00000000E+00  0.00000000E+00  0.00000000E+00  0.00000000E+00  0.00000000E+00
  4.02486927E-02  2.37593957E-01  8.15853851E-01  1.00000000E+00  1.00000000E+00
  1.00000000E+00  0.00000000E+00  0.00000000E+00  0.00000000E+00  0.00000000E+00
  0.00000000E+00  0.00000000E+00  0.00000000E+00  4.02486927E-02  2.37593957E-01
  8.15853851E-01  1.00000000E+00  1.00000000E+00  1.00000000E+00  0.00000000E+00
  0.00000000E+00  0.00000000E+00  0.00000000E+00  0.00000000E+00  0.00000000E+00
  0.00000000E+00  4.02486927E-02  2.37593957E-01  8.15853851E-01  1.00000000E+00
  1.00000000E+00  1.00000000E+00  0.00000000E+00  0.00000000E+00  0.00000000E+00
  0.00000000E+00  0.00000000E+00  0.00000000E+00  0.00000000E+00  0.00000000E+00
  0.00000000E+00  0.00000000E+00  0.00000000E+00  0.00000000E+00  0.00000000E+00
  0.00000000E+00  0.00000000E+00  0.00000000E+00  0.00000000E+00  0.00000000E+00
  0.00000000E+00  0.00000000E+00  0.00000000E+00  0.00000000E+00  0.00000000E+00
  0.00000000E+00  0.00000000E+00  0.00000000E+00  0.00000000E+00  0.00000000E+00
  0.00000000E+00  0.00000000E+00  0.00000000E+00  0.00000000E+00  0.00000000E+00
  0.00000000E+00  0.00000000E+00  0.00000000E+00  0.00000000E+00  0.00000000E+00
  0.00000000E+00  0.00000000E+00  0.00000000E+00  0.00000000E+00  0.00000000E+00
Coordinates of each shell                  R   N=         198
 -2.28266685E+00  1.31791908E+00 -2.54888061E-02 -2.28266685E+00  1.31791908E+00
 -2.54888061E-02 -2.28266685E+00  1.31791908E+00 -2.54888061E-02 -2.28266685E+00
  1.31791908E+00 -2.54888061E-02 -2.28266685E+00  1.31791908E+00 -2.54888061E-02
 -2.28266685E+00  1.31791908E+00 -2.54888061E-02 -2.28266685E+00 -1.31791908E+00
 -2.54888061E-02 -2.28266685E+00 -1.31791908E+00 -2.54888061E-02 -2.28266685E+00
 -1.31791908E+00 -2.54888061E-02 -2.28266685E+00 -1.31791908E+00 -2.54888061E-02
 -2.28266685E+00 -1.31791908E+00 -2.54888061E-02 -2.28266685E+00 -1.31791908E+00
 -2.54888061E-02 -7.31619307E-17 -2.63593635E+00 -2.55700643E-02 -7.31619307E-17
 -2.63593635E+00 -2.55700643E-02 -7.31619307E-17 -2.63593635E+00 -2.55700643E-02
 -7.31619307E-17 -2.63593635E+00 -2.55700643E-02 -7.31619307E-17 -2.63593635E+00
 -2.55700643E-02 -7.31619307E-17 -2.63593635E+00 -2.55700643E-02  2.28266685E+00
 -1.31791908E+00 -2.54888061E-02  2.28266685E+00 -1.31791908E+00 -2.54888061E-02
  2.28266685E+00 -1.31791908E+00 -2.54888061E-02  2.28266685E+00 -1.31791908E+00
 -2.54888061E-02  2.28266685E+00 -1.31791908E+00 -2.54888061E-02  2.28266685E+00
 -1.31791908E+00 -2.54888061E-02  2.28266685E+00  1.31791908E+00 -2.54888061E-02
  2.28266685E+00  1.31791908E+00 -2.54888061E-02  2.28266685E+00  1.31791908E+00
 -2.54888061E-02  2.28266685E+00  1.31791908E+00 -2.54888061E-02  2.28266685E+00
  1.31791908E+00 -2.54888061E-02  2.28266685E+00  1.31791908E+00 -2.54888061E-02
  5.12133515E-16  2.63593635E+00 -2.55700643E-02  5.12133515E-16  2.63593635E+00
 -2.55700643E-02  5.12133515E-16  2.63593635E+00 -2.55700643E-02  5.12133515E-16
  2.63593635E+00 -2.55700643E-02  5.12133515E-16  2.63593635E+00 -2.55700643E-02
  5.12133515E-16  2.63593635E+00 -2.55700643E-02 -4.05076087E+00  2.33867458E+00
  1.53126218E-01 -4.05076087E+00  2.33867458E+00  1.53126218E-01 -4.05076087E+00
  2.33867458E+00  1.53126218E-01 -4.05076087E+00  2.33867458E+00  1.53126218E-01
 -4.05076087E+00  2.33867458E+00  1.53126218E-01 -4.05076087E+00 -2.33867458E+00
  1.53126218E-01 -4.05076087E+00 -2.33867458E+00  1.53126218E-01 -4.05076087E+00
 -2.33867458E+00  1.53126218E-01 -4.05076087E+00 -2.33867458E+00  1.53126218E-01
 -4.05076087E+00 -2.33867458E+00  1.53126218E-01 -1.29827337E-16 -4.67752277E+00
  1.53046850E-01 -1.29827337E-16 -4.67752277E+00  1.53046850E-01 -1.29827337E-16
 -4.67752277E+00  1.53046850E-01 -1.29827337E-16 -4.67752277E+00  1.53046850E-01
 -1.29827337E-16 -4.67752277E+00  1.53046850E-01  4.05076087E+00 -2.33867458E+00
  1.53126218E-01  4.05076087E+00 -2.33867458E+00  1.53126218E-01  4.05076087E+00
 -2.33867458E+00  1.53126218E-01  4.05076087E+00 -2.33867458E+00  1.53126218E-01
  4.05076087E+00 -2.33867458E+00  1.53126218E-01  4.05076087E+00  2.33867458E+00
  1.53126218E-01  4.05076087E+00  2.33867458E+00  1.53126218E-01  4.05076087E+00
  2.33867458E+00  1.53126218E-01  4.05076087E+00  2.33867458E+00  1.53126218E-01
  4.05076087E+00  2.33867458E+00  1.53126218E-01  9.08791359E-16  4.67752277E+00
  1.53046850E-01  9.08791359E-16  4.67752277E+00  1.53046850E-01  9.08791359E-16
  4.67752277E+00  1.53046850E-01  9.08791359E-16  4.67752277E+00  1.53046850E-01
  9.08791359E-16  4.67752277E+00  1.53046850E-01
Constraint Structure                       R   N=          36
 -2.28266685E+00  1.31791908E+00 -2.54888061E-02 -2.28266685E+00 -1.31791908E+00
 -2.54888061E-02 -7.31619307E-17 -2.63593635E+00 -2.55700643E-02  2.28266685E+00
 -1.31791908E+00 -2.54888061E-02  2.28266685E+00  1.31791908E+00 -2.54888061E-02
  5.12133515E-16  2.63593635E+00 -2.55700643E-02 -4.05076087E+00  2.33867458E+00
  1.53126218E-01 -4.05076087E+00 -2.33867458E+00  1.53126218E-01 -1.29827337E-16
 -4.67752277E+00  1.53046850E-01  4.05076087E+00 -2.33867458E+00  1.53126218E-01
  4.05076087E+00  2.33867458E+00  1.53126218E-01  9.08791359E-16  4.67752277E+00
  1.53046850E-01
Num ILSW                                   I              100
ILSW                                       I   N=         100
           0           0           0           0           2           0
           0           0           0           0           0          -1
           0           0           0           0           0           0
           0           0           0           0           0           0
           1           0           0           0           0           0
           0           0      100000           0          -1           0
           0           0           0           0           0           0
           0           0           0           1           0           0
           0           0           1           0           0           0
           0           0           4          40           0           0
           0           0           0           0           0           0
           0           0           0           0           0           0
           0           0           0           0           0           0
           0           0           0           0           0           0
           0           0           0           0           0           0
           0           0           0           0           0           0
           0           0           0           0
Num RLSW                                   I               40
RLSW                                       R   N=          40
  1.00000000E+00  1.00000000E+00  1.00000000E+00  1.00000000E+00  1.00000000E+00
  0.00000000E+00  0.00000000E+00  1.00000000E+00  0.00000000E+00  0.00000000E+00
  0.00000000E+00  0.00000000E+00  1.00000000E+00  0.00000000E+00  0.00000000E+00
  0.00000000E+00  0.00000000E+00  1.00000000E+00  0.00000000E+00  0.00000000E+00
  0.00000000E+00  0.00000000E+00  1.00000000E+00  0.00000000E+00  0.00000000E+00
  0.00000000E+00  0.00000000E+00  1.00000000E+00  0.00000000E+00  0.00000000E+00
  0.00000000E+00  0.00000000E+00  0.00000000E+00  0.00000000E+00  0.00000000E+00
  0.00000000E+00  0.00000000E+00  0.00000000E+00  1.00000000E+00  1.00000000E+00
MxBond                                     I                3
NBond                                      I   N=          12
           3           3           3           3           3           3
           1           1           1           1           1           1
IBond                                      I   N=          36
           2           6           7           1           3           8
           2           4           9           3           5          10
           4           6          11           1           5          12
           1           0           0           2           0           0
           3           0           0           4           0           0
           5           0           0           6           0           0
RBond                                      R   N=          36
  1.50000000E+00  1.50000000E+00  1.00000000E+00  1.50000000E+00  1.50000000E+00
  1.00000000E+00  1.50000000E+00  1.50000000E+00  1.00000000E+00  1.50000000E+00
  1.50000000E+00  1.00000000E+00  1.50000000E+00  1.50000000E+00  1.00000000E+00
  1.50000000E+00  1.50000000E+00  1.00000000E+00  1.00000000E+00  0.00000000E+00
  0.00000000E+00  1.00000000E+00  0.00000000E+00  0.00000000E+00  1.00000000E+00
  0.00000000E+00  0.00000000E+00  1.00000000E+00  0.00000000E+00  0.00000000E+00
  1.00000000E+00  0.00000000E+00  0.00000000E+00  1.00000000E+00  0.00000000E+00
  0.00000000E+00
Virial Ratio                               R      2.001295166360408E+00
SCF Energy                                 R     -2.307541811797155E+02
MP2 Energy                                 R     -2.315825397111375E+02
Total Energy                               R     -2.315825397111375E+02
Post-SCF wavefunction norm                 R      1.143503849881637E+00
RMS Density                                R      4.993169295614500E-09
External E-field                           R   N=          35
  0.00000000E+00  0.00000000E+00  0.00000000E+00  0.00000000E+00  0.00000000E+00
  0.00000000E+00  0.00000000E+00  0.00000000E+00  0.00000000E+00  0.00000000E+00
  0.00000000E+00  0.00000000E+00  0.00000000E+00  0.00000000E+00  0.00000000E+00
  0.00000000E+00  0.00000000E+00  0.00000000E+00  0.00000000E+00  0.00000000E+00
  0.00000000E+00  0.00000000E+00  0.00000000E+00  0.00000000E+00  0.00000000E+00
  0.00000000E+00  0.00000000E+00  0.00000000E+00  0.00000000E+00  0.00000000E+00
  0.00000000E+00  0.00000000E+00  0.00000000E+00  0.00000000E+00  0.00000000E+00
IOpCl                                      I                0
IROHF                                      I                0
Alpha Orbital Energies                     R   N=         173
 -1.12392888E+01 -1.12387203E+01 -1.12387178E+01 -1.12374907E+01 -1.12374881E+01
 -1.12368867E+01 -1.15229080E+00 -1.01654416E+00 -1.01653815E+00 -8.25284881E-01
 -8.25275816E-01 -7.10625970E-01 -6.44144516E-01 -6.20838786E-01 -5.89489544E-01
 -5.89473154E-01 -5.02048068E-01 -4.95932567E-01 -4.95911759E-01 -3.37081360E-01
 -3.37078500E-01  4.22252114E-02  4.93556417E-02  4.93569149E-02  6.66486603E-02
  6.66492144E-02  9.77821197E-02  1.08627950E-01  1.08635619E-01  1.28672363E-01
  1.51751551E-01  1.51752419E-01  1.58567887E-01  1.62913049E-01  1.81367951E-01
  1.81369960E-01  1.85073071E-01  1.85078042E-01  1.92654185E-01  2.08779461E-01
  2.12599494E-01  2.12601244E-01  2.15969175E-01  2.15972604E-01  2.28094496E-01
  2.28100961E-01  2.46923123E-01  2.50502091E-01  2.51576539E-01  2.88954625E-01
  2.88955932E-01  3.03165803E-01  3.25980307E-01  3.64078601E-01  4.04149469E-01
  4.04188663E-01  4.15477208E-01  4.29486114E-01  4.29487067E-01  4.96259845E-01
  4.96260567E-01  5.07862613E-01  5.07867493E-01  6.04096542E-01  6.06010413E-01
  7.15655549E-01  7.18948021E-01  7.23613902E-01  7.23645573E-01  7.51278383E-01
  7.51663400E-01  7.51670083E-01  7.57149286E-01  7.57151858E-01  7.96013759E-01
  8.18656161E-01  8.18659817E-01  8.63768800E-01  9.01394484E-01  9.37912507E-01
  9.38013373E-01  9.49268302E-01  9.49280801E-01  9.67297010E-01  9.93476857E-01
  9.93479903E-01  1.04039328E+00  1.04039556E+00  1.10192388E+00  1.11678879E+00
  1.11679435E+00  1.12960448E+00  1.17653470E+00  1.19306227E+00  1.19307173E+00
  1.24758721E+00  1.33999280E+00  1.34001789E+00  1.42064976E+00  1.42066864E+00
  1.46873928E+00  1.55559927E+00  1.71233439E+00  1.78338945E+00  1.78344188E+00
  1.79265199E+00  1.83820530E+00  1.83821227E+00  1.84693645E+00  1.91723907E+00
  1.91726119E+00  1.92710275E+00  1.92712926E+00  1.99052719E+00  2.05392289E+00
  2.05393335E+00  2.10022717E+00  2.10025362E+00  2.12828521E+00  2.21926528E+00
  2.21931238E+00  2.22502202E+00  2.26861597E+00  2.26867291E+00  2.29572796E+00
  2.33939530E+00  2.33940940E+00  2.38263355E+00  2.38264965E+00  2.63278204E+00
  2.66865682E+00  2.73539009E+00  2.73539504E+00  2.74000002E+00  2.81127169E+00
  2.81131184E+00  2.95330674E+00  2.95332201E+00  2.95581298E+00  2.98839805E+00
  3.01579066E+00  3.01581229E+00  3.02840732E+00  3.03599627E+00  3.03600019E+00
  3.05825215E+00  3.19479341E+00  3.19480289E+00  3.26081918E+00  3.29457007E+00
  3.29457575E+00  3.32154990E+00  3.32156291E+00  3.48698988E+00  3.54598030E+00
  3.77190985E+00  3.77191911E+00  3.90248106E+00  3.90248480E+00  3.91483129E+00
  4.06485197E+00  4.40400075E+00  4.40402011E+00  4.49404684E+00  4.56675239E+00
  4.56676551E+00  5.27139343E+00  2.47436799E+01  2.51331183E+01  2.51331359E+01
  2.52550819E+01  2.52551110E+01  2.53570379E+01
Alpha MO coefficients                      R   N=       30102
  2.29746581E-01  1.90226957E-01  2.60197959E-05 -1.48417724E-05 -2.31962773E-05
  2.02285888E-03  1.60239402E-04 -9.23879813E-05  1.66500086E-05 -3.84165163E-04
 -1.24505775E-05  7.16006653E-06 -7.84711459E-06 -6.22019374E-05  1.50523697E-04
 -8.69790889E-05 -5.05579959E-06 -1.15992700E-04 -2.03482685E-06  1.16795244E-06
 -3.22960662E-05  5.60212390E-05  2.29746581E-01  1.90226957E-01  2.60197959E-05
  1.48417724E-05 -2.31962773E-05  2.02285888E-03  1.60239402E-04  9.23879813E-05
  1.66500086E-05 -3.84165163E-04 -1.24505775E-05 -7.16006653E-06 -7.84711459E-06
 -6.22019374E-05  1.50523697E-04  8.69790889E-05 -5.05579959E-06 -1.15992700E-04
 -2.03482685E-06 -1.16795244E-06 -3.22960662E-05 -5.60212390E-05  2.30233014E-01
  1.90629885E-01  0.00000000E+00  2.97511132E-05 -2.32392674E-05  2.02627201E-03
  0.00000000E+00  1.85116972E-04  1.67232700E-05 -3.84699742E-04  0.00000000E+00
 -1.47270957E-05 -7.89480097E-06 -5.81286768E-05  0.00000000E+00  1.75464996E-04
 -5.04903950E-06 -1.16417301E-04  0.00000000E+00 -2.37415643E-06  6.46842610E-05
  0.00000000E+00  2.29746581E-01  1.90226957E-01 -2.60197959E-05  1.48417724E-05
 -2.31962773E-05  2.02285888E-03 -1.60239402E-04  9.23879813E-05  1.66500086E-05
 -3.84165163E-04  1.24505775E-05 -7.16006653E-06 -7.84711459E-06 -6.22019374E-05
 -1.50523697E-04  8.69790889E-05 -5.05579959E-06 -1.15992700E-04  2.03482685E-06
 -1.16795244E-06 -3.22960662E-05  5.60212390E-05  2.29746581E-01  1.90226957E-01
 -2.60197959E-05 -1.48417724E-05 -2.31962773E-05  2.02285888E-03 -1.60239402E-04
 -9.23879813E-05  1.66500086E-05 -3.84165163E-04  1.24505775E-05  7.16006653E-06
 -7.84711459E-06 -6.22019374E-05 -1.50523697E-04 -8.69790889E-05 -5.05579959E-06
 -1.15992700E-04  2.03482685E-06  1.16795244E-06 -3.22960662E-05 -5.60212390E-05
  2.30233014E-01  1.90629885E-01  0.00000000E+00 -2.97511132E-05 -2.32392674E-05
  2.02627201E-03  0.00000000E+00 -1.85116972E-04  1.67232700E-05 -3.84699742E-04
  0.00000000E+00  1.47270957E-05 -7.89480097E-06 -5.81286768E-05  0.00000000E+00
 -1.75464996E-04 -5.04903950E-06 -1.16417301E-04  0.00000000E+00  2.37415643E-06
  6.46842610E-05  0.00000000E+00  1.76762041E-04 -1.25466310E-05  2.25101708E-04
  6.33021609E-05  2.66693734E-05 -1.53828972E-05 -4.62443544E-06  1.76762041E-04
 -1.25466310E-05  2.25101708E-04  6.33021609E-05  2.66693734E-05  1.53828972E-05
 -4.62443544E-06  1.77117803E-04 -1.27689186E-05  2.25383712E-04  6.38603869E-05
  0.00000000E+00  3.07717961E-05 -4.61921771E-06  1.76762041E-04 -1.25466310E-05
  2.25101708E-04  6.33021609E-05 -2.66693734E-05  1.53828972E-05 -4.62443544E-06
  1.76762041E-04 -1.25466310E-05  2.25101708E-04  6.33021609E-05 -2.66693734E-05
 -1.53828972E-05 -4.62443544E-06  1.77117803E-04 -1.27689186E-05  2.25383712E-04
  6.38603869E-05  0.00000000E+00 -3.07717961E-05 -4.61921771E-06 -1.62364431E-01
 -1.34455959E-01 -8.23106794E-05 -1.38557726E-04  1.76126108E-05 -1.32923781E-03
 -1.25744889E-04 -7.37080683E-05 -1.82161532E-05  1.51996434E-04  9.37935473E-05
  1.77702512E-04  7.95488994E-06  4.78995124E-04 -9.95036687E-04 -5.15676554E-04
  2.47444543E-05  9.66702127E-05  8.84895341E-06  5.60658325E-06 -5.73743090E-05
 -8.34938988E-05  1.62364431E-01  1.34455959E-01  8.23106794E-05 -1.38557726E-04
 -1.76126108E-05  1.32923781E-03  1.25744889E-04 -7.37080683E-05  1.82161532E-05
 -1.51996434E-04 -9.37935473E-05  1.77702512E-04 -7.95488994E-06 -4.78995124E-04
  9.95036687E-04 -5.15676554E-04 -2.47444543E-05 -9.66702127E-05 -8.84895341E-06
  5.60658325E-06  5.73743090E-05 -8.34938988E-05  3.25411832E-01  2.69477689E-01
  0.00000000E+00  3.51858755E-06 -3.52703420E-05  2.66329383E-03  0.00000000E+00
  1.44352804E-04  3.65015973E-05 -3.20133380E-04  0.00000000E+00  4.87969462E-08
 -1.52783606E-05 -1.57239618E-03  0.00000000E+00  1.05821460E-03 -4.36058820E-05
 -1.94016995E-04  0.00000000E+00 -9.81192787E-06  8.68261530E-05  0.00000000E+00
  1.62364431E-01  1.34455959E-01 -8.23106794E-05 -1.38557726E-04 -1.76126108E-05
  1.32923781E-03 -1.25744889E-04 -7.37080683E-05  1.82161532E-05 -1.51996434E-04
  9.37935473E-05  1.77702512E-04 -7.95488994E-06 -4.78995124E-04 -9.95036687E-04
 -5.15676554E-04 -2.47444543E-05 -9.66702127E-05  8.84895341E-06  5.60658325E-06
  5.73743090E-05  8.34938988E-05 -1.62364431E-01 -1.34455959E-01  8.23106794E-05
 -1.38557726E-04  1.76126108E-05 -1.32923781E-03  1.25744889E-04 -7.37080683E-05
 -1.82161532E-05  1.51996434E-04 -9.37935473E-05  1.77702512E-04  7.95488994E-06
  4.78995124E-04  9.95036687E-04 -5.15676554E-04  2.47444543E-05  9.66702127E-05
 -8.84895341E-06  5.60658325E-06 -5.73743090E-05  8.34938988E-05 -3.25411832E-01
 -2.69477689E-01  0.00000000E+00  3.51858755E-06  3.52703420E-05 -2.66329383E-03
  0.00000000E+00  1.44352804E-04 -3.65015973E-05  3.20133380E-04  0.00000000E+00