X=OCH3                                                                  
SP        RMP2-FC                                                     6-311++G(d,p)       
Number of atoms                            I               16
Info1-9                                    I   N=           9
          28          25           0           0           0         110
           1           2           1
Charge                                     I                0
Multiplicity                               I                1
Number of electrons                        I               58
Number of alpha electrons                  I               29
Number of beta electrons                   I               29
Number of basis functions                  I              232
Number of independent functions            I              232
Number of point charges in /Mol/           I                0
Number of translation vectors              I                0
Atomic numbers                             I   N=          16
           6           6           6           6           6           6
           8           6           1           1           1           1
           1           1           1           1
Nuclear charges                            R   N=          16
  6.00000000E+00  6.00000000E+00  6.00000000E+00  6.00000000E+00  6.00000000E+00
  6.00000000E+00  8.00000000E+00  6.00000000E+00  1.00000000E+00  1.00000000E+00
  1.00000000E+00  1.00000000E+00  1.00000000E+00  1.00000000E+00  1.00000000E+00
  1.00000000E+00
Current cartesian coordinates              R   N=          48
 -1.68515761E+00 -4.01796594E+00  0.00000000E+00  8.85523776E-01 -3.47761576E+00
  0.00000000E+00  1.74847666E+00 -9.81618240E-01  0.00000000E+00  9.50362761E-17
  9.97304856E-01  0.00000000E+00 -2.59257386E+00  4.63568718E-01  0.00000000E+00
 -3.41912685E+00 -2.02527808E+00  0.00000000E+00  6.27993788E-01  3.50119765E+00
  0.00000000E+00  3.22699083E+00  4.17318804E+00  0.00000000E+00 -3.91368140E+00
  2.02749284E+00  0.00000000E+00 -5.43066661E+00 -2.41580132E+00  0.00000000E+00
 -2.33685045E+00 -5.95880916E+00  0.00000000E+00  2.25465304E+00 -5.00238475E+00
  0.00000000E+00  3.75895063E+00 -6.13238807E-01  0.00000000E+00  3.27527900E+00
  6.23006423E+00  0.00000000E+00  4.19177728E+00  3.46679519E+00  1.68989137E+00
  4.19177728E+00  3.46679519E+00 -1.68989137E+00
Force Field                                I                0
Int Atom Types                             I   N=          16
           0           0           0           0           0           0
           0           0           0           0           0           0
           0           0           0           0
MM charges                                 R   N=          16
  0.00000000E+00  0.00000000E+00  0.00000000E+00  0.00000000E+00  0.00000000E+00
  0.00000000E+00  0.00000000E+00  0.00000000E+00  0.00000000E+00  0.00000000E+00
  0.00000000E+00  0.00000000E+00  0.00000000E+00  0.00000000E+00  0.00000000E+00
  0.00000000E+00
Integer atomic weights                     I   N=          16
          12          12          12          12          12          12
          16          12           1           1           1           1
           1           1           1           1
Real atomic weights                        R   N=          16
  1.20000000E+01  1.20000000E+01  1.20000000E+01  1.20000000E+01  1.20000000E+01
  1.20000000E+01  1.59949146E+01  1.20000000E+01  1.00782504E+00  1.00782504E+00
  1.00782504E+00  1.00782504E+00  1.00782504E+00  1.00782504E+00  1.00782504E+00
  1.00782504E+00
Atom fragment info                         I   N=          16
           0           0           0           0           0           0
           0           0           0           0           0           0
           0           0           0           0
Atom residue num                           I   N=          16
           0           0           0           0           0           0
           0           0           0           0           0           0
           0           0           0           0
Nuclear spins                              I   N=          16
           0           0           0           0           0           0
           0           0           1           1           1           1
           1           1           1           1
Nuclear ZEff                               R   N=          16
 -3.60000000E+00 -3.60000000E+00 -3.60000000E+00 -3.60000000E+00 -3.60000000E+00
 -3.60000000E+00 -5.60000000E+00 -3.60000000E+00 -1.00000000E+00 -1.00000000E+00
 -1.00000000E+00 -1.00000000E+00 -1.00000000E+00 -1.00000000E+00 -1.00000000E+00
 -1.00000000E+00
Nuclear QMom                               R   N=          16
  0.00000000E+00  0.00000000E+00  0.00000000E+00  0.00000000E+00  0.00000000E+00
  0.00000000E+00  0.00000000E+00  0.00000000E+00  0.00000000E+00  0.00000000E+00
  0.00000000E+00  0.00000000E+00  0.00000000E+00  0.00000000E+00  0.00000000E+00
  0.00000000E+00
Nuclear GFac                               R   N=          16
  0.00000000E+00  0.00000000E+00  0.00000000E+00  0.00000000E+00  0.00000000E+00
  0.00000000E+00  0.00000000E+00  0.00000000E+00  2.79284600E+00  2.79284600E+00
  2.79284600E+00  2.79284600E+00  2.79284600E+00  2.79284600E+00  2.79284600E+00
  2.79284600E+00
MicOpt                                     I   N=          16
          -1          -1          -1          -1          -1          -1
          -1          -1          -1          -1          -1          -1
          -1          -1          -1          -1
Number of contracted shells                I               88
Number of primitive shells                 I              160
Pure/Cartesian d shells                    I                0
Pure/Cartesian f shells                    I                0
Highest angular momentum                   I                2
Largest degree of contraction              I                6
Shell types                                I   N=          88
           0          -1          -1          -1          -1          -2
           0          -1          -1          -1          -1          -2
           0          -1          -1          -1          -1          -2
           0          -1          -1          -1          -1          -2
           0          -1          -1          -1          -1          -2
           0          -1          -1          -1          -1          -2
           0          -1          -1          -1          -1          -2
           0          -1          -1          -1          -1          -2
           0           0           0           0           1           0
           0           0           0           1           0           0
           0           0           1           0           0           0
           0           1           0           0           0           0
           1           0           0           0           0           1
           0           0           0           0           1           0
           0           0           0           1
Number of primitives per shell             I   N=          88
           6           3           1           1           1           1
           6           3           1           1           1           1
           6           3           1           1           1           1
           6           3           1           1           1           1
           6           3           1           1           1           1
           6           3           1           1           1           1
           6           3           1           1           1           1
           6           3           1           1           1           1
           3           1           1           1           1           3
           1           1           1           1           3           1
           1           1           1           3           1           1
           1           1           3           1           1           1
           1           3           1           1           1           1
           3           1           1           1           1           3
           1           1           1           1
Shell to atom map                          I   N=          88
           1           1           1           1           1           1
           2           2           2           2           2           2
           3           3           3           3           3           3
           4           4           4           4           4           4
           5           5           5           5           5           5
           6           6           6           6           6           6
           7           7           7           7           7           7
           8           8           8           8           8           8
           9           9           9           9           9          10
          10          10          10          10          11          11
          11          11          11          12          12          12
          12          12          13          13          13          13
          13          14          14          14          14          14
          15          15          15          15          15          16
          16          16          16          16
Primitive exponents                        R   N=         160
  4.56324000E+03  6.82024000E+02  1.54973000E+02  4.44553000E+01  1.30290000E+01
  1.82773000E+00  2.09642000E+01  4.80331000E+00  1.45933000E+00  4.83456000E-01
  1.45585000E-01  4.38000000E-02  6.26000000E-01  4.56324000E+03  6.82024000E+02
  1.54973000E+02  4.44553000E+01  1.30290000E+01  1.82773000E+00  2.09642000E+01
  4.80331000E+00  1.45933000E+00  4.83456000E-01  1.45585000E-01  4.38000000E-02
  6.26000000E-01  4.56324000E+03  6.82024000E+02  1.54973000E+02  4.44553000E+01
  1.30290000E+01  1.82773000E+00  2.09642000E+01  4.80331000E+00  1.45933000E+00
  4.83456000E-01  1.45585000E-01  4.38000000E-02  6.26000000E-01  4.56324000E+03
  6.82024000E+02  1.54973000E+02  4.44553000E+01  1.30290000E+01  1.82773000E+00
  2.09642000E+01  4.80331000E+00  1.45933000E+00  4.83456000E-01  1.45585000E-01
  4.38000000E-02  6.26000000E-01  4.56324000E+03  6.82024000E+02  1.54973000E+02
  4.44553000E+01  1.30290000E+01  1.82773000E+00  2.09642000E+01  4.80331000E+00
  1.45933000E+00  4.83456000E-01  1.45585000E-01  4.38000000E-02  6.26000000E-01
  4.56324000E+03  6.82024000E+02  1.54973000E+02  4.44553000E+01  1.30290000E+01
  1.82773000E+00  2.09642000E+01  4.80331000E+00  1.45933000E+00  4.83456000E-01
  1.45585000E-01  4.38000000E-02  6.26000000E-01  8.58850000E+03  1.29723000E+03
  2.99296000E+02  8.73771000E+01  2.56789000E+01  3.74004000E+00  4.21175000E+01
  9.62837000E+00  2.85332000E+00  9.05661000E-01  2.55611000E-01  8.45000000E-02
  1.29200000E+00  4.56324000E+03  6.82024000E+02  1.54973000E+02  4.44553000E+01
  1.30290000E+01  1.82773000E+00  2.09642000E+01  4.80331000E+00  1.45933000E+00
  4.83456000E-01  1.45585000E-01  4.38000000E-02  6.26000000E-01  3.38650000E+01
  5.09479000E+00  1.15879000E+00  3.25840000E-01  1.02741000E-01  3.60000000E-02
  7.50000000E-01  3.38650000E+01  5.09479000E+00  1.15879000E+00  3.25840000E-01
  1.02741000E-01  3.60000000E-02  7.50000000E-01  3.38650000E+01  5.09479000E+00
  1.15879000E+00  3.25840000E-01  1.02741000E-01  3.60000000E-02  7.50000000E-01
  3.38650000E+01  5.09479000E+00  1.15879000E+00  3.25840000E-01  1.02741000E-01
  3.60000000E-02  7.50000000E-01  3.38650000E+01  5.09479000E+00  1.15879000E+00
  3.25840000E-01  1.02741000E-01  3.60000000E-02  7.50000000E-01  3.38650000E+01
  5.09479000E+00  1.15879000E+00  3.25840000E-01  1.02741000E-01  3.60000000E-02
  7.50000000E-01  3.38650000E+01  5.09479000E+00  1.15879000E+00  3.25840000E-01
  1.02741000E-01  3.60000000E-02  7.50000000E-01  3.38650000E+01  5.09479000E+00
  1.15879000E+00  3.25840000E-01  1.02741000E-01  3.60000000E-02  7.50000000E-01
Contraction coefficients                   R   N=         160
  1.96665025E-03  1.52306019E-02  7.61269097E-02  2.60801033E-01  6.16462078E-01
  2.21006028E-01  1.14660081E-01  9.19999648E-01 -3.03068213E-03  1.00000000E+00
  1.00000000E+00  1.00000000E+00  1.00000000E+00  1.96665025E-03  1.52306019E-02
  7.61269097E-02  2.60801033E-01  6.16462078E-01  2.21006028E-01  1.14660081E-01
  9.19999648E-01 -3.03068213E-03  1.00000000E+00  1.00000000E+00  1.00000000E+00
  1.00000000E+00  1.96665025E-03  1.52306019E-02  7.61269097E-02  2.60801033E-01
  6.16462078E-01  2.21006028E-01  1.14660081E-01  9.19999648E-01 -3.03068213E-03
  1.00000000E+00  1.00000000E+00  1.00000000E+00  1.00000000E+00  1.96665025E-03
  1.52306019E-02  7.61269097E-02  2.60801033E-01  6.16462078E-01  2.21006028E-01
  1.14660081E-01  9.19999648E-01 -3.03068213E-03  1.00000000E+00  1.00000000E+00
  1.00000000E+00  1.00000000E+00  1.96665025E-03  1.52306019E-02  7.61269097E-02
  2.60801033E-01  6.16462078E-01  2.21006028E-01  1.14660081E-01  9.19999648E-01
 -3.03068213E-03  1.00000000E+00  1.00000000E+00  1.00000000E+00  1.00000000E+00
  1.96665025E-03  1.52306019E-02  7.61269097E-02  2.60801033E-01  6.16462078E-01
  2.21006028E-01  1.14660081E-01  9.19999648E-01 -3.03068213E-03  1.00000000E+00
  1.00000000E+00  1.00000000E+00  1.00000000E+00  1.89515008E-03  1.43859006E-02
  7.07320031E-02  2.40001011E-01  5.94797026E-01  2.80802012E-01  1.13889012E-01
  9.20811101E-01 -3.27447036E-03  1.00000000E+00  1.00000000E+00  1.00000000E+00
  1.00000000E+00  1.96665025E-03  1.52306019E-02  7.61269097E-02  2.60801033E-01
  6.16462078E-01  2.21006028E-01  1.14660081E-01  9.19999648E-01 -3.03068213E-03
  1.00000000E+00  1.00000000E+00  1.00000000E+00  1.00000000E+00  2.54938145E-02
  1.90373109E-01  8.52161486E-01  1.00000000E+00  1.00000000E+00  1.00000000E+00
  1.00000000E+00  2.54938145E-02  1.90373109E-01  8.52161486E-01  1.00000000E+00
  1.00000000E+00  1.00000000E+00  1.00000000E+00  2.54938145E-02  1.90373109E-01
  8.52161486E-01  1.00000000E+00  1.00000000E+00  1.00000000E+00  1.00000000E+00
  2.54938145E-02  1.90373109E-01  8.52161486E-01  1.00000000E+00  1.00000000E+00
  1.00000000E+00  1.00000000E+00  2.54938145E-02  1.90373109E-01  8.52161486E-01
  1.00000000E+00  1.00000000E+00  1.00000000E+00  1.00000000E+00  2.54938145E-02
  1.90373109E-01  8.52161486E-01  1.00000000E+00  1.00000000E+00  1.00000000E+00
  1.00000000E+00  2.54938145E-02  1.90373109E-01  8.52161486E-01  1.00000000E+00
  1.00000000E+00  1.00000000E+00  1.00000000E+00  2.54938145E-02  1.90373109E-01
  8.52161486E-01  1.00000000E+00  1.00000000E+00  1.00000000E+00  1.00000000E+00
P(S=P) Contraction coefficients            R   N=         160
  0.00000000E+00  0.00000000E+00  0.00000000E+00  0.00000000E+00  0.00000000E+00
  0.00000000E+00  4.02486927E-02  2.37593957E-01  8.15853851E-01  1.00000000E+00
  1.00000000E+00  1.00000000E+00  0.00000000E+00  0.00000000E+00  0.00000000E+00
  0.00000000E+00  0.00000000E+00  0.00000000E+00  0.00000000E+00  4.02486927E-02
  2.37593957E-01  8.15853851E-01  1.00000000E+00  1.00000000E+00  1.00000000E+00
  0.00000000E+00  0.00000000E+00  0.00000000E+00  0.00000000E+00  0.00000000E+00
  0.00000000E+00  0.00000000E+00  4.02486927E-02  2.37593957E-01  8.15853851E-01
  1.00000000E+00  1.00000000E+00  1.00000000E+00  0.00000000E+00  0.00000000E+00
  0.00000000E+00  0.00000000E+00  0.00000000E+00  0.00000000E+00  0.00000000E+00
  4.02486927E-02  2.37593957E-01  8.15853851E-01  1.00000000E+00  1.00000000E+00
  1.00000000E+00  0.00000000E+00  0.00000000E+00  0.00000000E+00  0.00000000E+00
  0.00000000E+00  0.00000000E+00  0.00000000E+00  4.02486927E-02  2.37593957E-01
  8.15853851E-01  1.00000000E+00  1.00000000E+00  1.00000000E+00  0.00000000E+00
  0.00000000E+00  0.00000000E+00  0.00000000E+00  0.00000000E+00  0.00000000E+00
  0.00000000E+00  4.02486927E-02  2.37593957E-01  8.15853851E-01  1.00000000E+00
  1.00000000E+00  1.00000000E+00  0.00000000E+00  0.00000000E+00  0.00000000E+00
  0.00000000E+00  0.00000000E+00  0.00000000E+00  0.00000000E+00  3.65113974E-02
  2.37152983E-01  8.19701941E-01  1.00000000E+00  1.00000000E+00  1.00000000E+00
  0.00000000E+00  0.00000000E+00  0.00000000E+00  0.00000000E+00  0.00000000E+00
  0.00000000E+00  0.00000000E+00  4.02486927E-02  2.37593957E-01  8.15853851E-01
  1.00000000E+00  1.00000000E+00  1.00000000E+00  0.00000000E+00  0.00000000E+00
  0.00000000E+00  0.00000000E+00  0.00000000E+00  0.00000000E+00  0.00000000E+00
  0.00000000E+00  0.00000000E+00  0.00000000E+00  0.00000000E+00  0.00000000E+00
  0.00000000E+00  0.00000000E+00  0.00000000E+00  0.00000000E+00  0.00000000E+00
  0.00000000E+00  0.00000000E+00  0.00000000E+00  0.00000000E+00  0.00000000E+00
  0.00000000E+00  0.00000000E+00  0.00000000E+00  0.00000000E+00  0.00000000E+00
  0.00000000E+00  0.00000000E+00  0.00000000E+00  0.00000000E+00  0.00000000E+00
  0.00000000E+00  0.00000000E+00  0.00000000E+00  0.00000000E+00  0.00000000E+00
  0.00000000E+00  0.00000000E+00  0.00000000E+00  0.00000000E+00  0.00000000E+00
  0.00000000E+00  0.00000000E+00  0.00000000E+00  0.00000000E+00  0.00000000E+00
  0.00000000E+00  0.00000000E+00  0.00000000E+00  0.00000000E+00  0.00000000E+00
  0.00000000E+00  0.00000000E+00  0.00000000E+00  0.00000000E+00  0.00000000E+00
Coordinates of each shell                  R   N=         264
 -1.68515646E+00 -4.01796626E+00  0.00000000E+00 -1.68515646E+00 -4.01796626E+00
  0.00000000E+00 -1.68515646E+00 -4.01796626E+00  0.00000000E+00 -1.68515646E+00
 -4.01796626E+00  0.00000000E+00 -1.68515646E+00 -4.01796626E+00  0.00000000E+00
 -1.68515646E+00 -4.01796626E+00  0.00000000E+00  8.85524799E-01 -3.47761549E+00
  0.00000000E+00  8.85524799E-01 -3.47761549E+00  0.00000000E+00  8.85524799E-01
 -3.47761549E+00  0.00000000E+00  8.85524799E-01 -3.47761549E+00  0.00000000E+00
  8.85524799E-01 -3.47761549E+00  0.00000000E+00  8.85524799E-01 -3.47761549E+00
  0.00000000E+00  1.74847712E+00 -9.81617775E-01  0.00000000E+00  1.74847712E+00
 -9.81617775E-01  0.00000000E+00  1.74847712E+00 -9.81617775E-01  0.00000000E+00
  1.74847712E+00 -9.81617775E-01  0.00000000E+00  1.74847712E+00 -9.81617775E-01
  0.00000000E+00  1.74847712E+00 -9.81617775E-01  0.00000000E+00  0.00000000E+00
  9.97304922E-01  0.00000000E+00  0.00000000E+00  9.97304922E-01  0.00000000E+00
  0.00000000E+00  9.97304922E-01  0.00000000E+00  0.00000000E+00  9.97304922E-01
  0.00000000E+00  0.00000000E+00  9.97304922E-01  0.00000000E+00  0.00000000E+00
  9.97304922E-01  0.00000000E+00 -2.59257374E+00  4.63568190E-01  0.00000000E+00
 -2.59257374E+00  4.63568190E-01  0.00000000E+00 -2.59257374E+00  4.63568190E-01
  0.00000000E+00 -2.59257374E+00  4.63568190E-01  0.00000000E+00 -2.59257374E+00
  4.63568190E-01  0.00000000E+00 -2.59257374E+00  4.63568190E-01  0.00000000E+00
 -3.41912615E+00 -2.02527879E+00  0.00000000E+00 -3.41912615E+00 -2.02527879E+00
  0.00000000E+00 -3.41912615E+00 -2.02527879E+00  0.00000000E+00 -3.41912615E+00
 -2.02527879E+00  0.00000000E+00 -3.41912615E+00 -2.02527879E+00  0.00000000E+00
 -3.41912615E+00 -2.02527879E+00  0.00000000E+00  6.27993216E-01  3.50119786E+00
  0.00000000E+00  6.27993216E-01  3.50119786E+00  0.00000000E+00  6.27993216E-01
  3.50119786E+00  0.00000000E+00  6.27993216E-01  3.50119786E+00  0.00000000E+00
  6.27993216E-01  3.50119786E+00  0.00000000E+00  6.27993216E-01  3.50119786E+00
  0.00000000E+00  3.22699010E+00  4.17318885E+00  0.00000000E+00  3.22699010E+00
  4.17318885E+00  0.00000000E+00  3.22699010E+00  4.17318885E+00  0.00000000E+00
  3.22699010E+00  4.17318885E+00  0.00000000E+00  3.22699010E+00  4.17318885E+00
  0.00000000E+00  3.22699010E+00  4.17318885E+00  0.00000000E+00 -3.91368164E+00
  2.02749201E+00  0.00000000E+00 -3.91368164E+00  2.02749201E+00  0.00000000E+00
 -3.91368164E+00  2.02749201E+00  0.00000000E+00 -3.91368164E+00  2.02749201E+00
  0.00000000E+00 -3.91368164E+00  2.02749201E+00  0.00000000E+00 -5.43066583E+00
 -2.41580250E+00  0.00000000E+00 -5.43066583E+00 -2.41580250E+00  0.00000000E+00
 -5.43066583E+00 -2.41580250E+00  0.00000000E+00 -5.43066583E+00 -2.41580250E+00
  0.00000000E+00 -5.43066583E+00 -2.41580250E+00  0.00000000E+00 -2.33684886E+00
 -5.95880963E+00  0.00000000E+00 -2.33684886E+00 -5.95880963E+00  0.00000000E+00
 -2.33684886E+00 -5.95880963E+00  0.00000000E+00 -2.33684886E+00 -5.95880963E+00
  0.00000000E+00 -2.33684886E+00 -5.95880963E+00  0.00000000E+00  2.25465441E+00
 -5.00238417E+00  0.00000000E+00  2.25465441E+00 -5.00238417E+00  0.00000000E+00
  2.25465441E+00 -5.00238417E+00  0.00000000E+00  2.25465441E+00 -5.00238417E+00
  0.00000000E+00  2.25465441E+00 -5.00238417E+00  0.00000000E+00  3.75895100E+00
 -6.13237882E-01  0.00000000E+00  3.75895100E+00 -6.13237882E-01  0.00000000E+00
  3.75895100E+00 -6.13237882E-01  0.00000000E+00  3.75895100E+00 -6.13237882E-01
  0.00000000E+00  3.75895100E+00 -6.13237882E-01  0.00000000E+00  3.27527781E+00
  6.23006505E+00  0.00000000E+00  3.27527781E+00  6.23006505E+00  0.00000000E+00
  3.27527781E+00  6.23006505E+00  0.00000000E+00  3.27527781E+00  6.23006505E+00
  0.00000000E+00  3.27527781E+00  6.23006505E+00  0.00000000E+00  4.19177672E+00
  3.46679621E+00  1.68989137E+00  4.19177672E+00  3.46679621E+00  1.68989137E+00
  4.19177672E+00  3.46679621E+00  1.68989137E+00  4.19177672E+00  3.46679621E+00
  1.68989137E+00  4.19177672E+00  3.46679621E+00  1.68989137E+00  4.19177672E+00
  3.46679621E+00 -1.68989137E+00  4.19177672E+00  3.46679621E+00 -1.68989137E+00
  4.19177672E+00  3.46679621E+00 -1.68989137E+00  4.19177672E+00  3.46679621E+00
 -1.68989137E+00  4.19177672E+00  3.46679621E+00 -1.68989137E+00
Constraint Structure                       R   N=          48
 -1.68515646E+00 -4.01796626E+00  0.00000000E+00  8.85524799E-01 -3.47761549E+00
  0.00000000E+00  1.74847712E+00 -9.81617775E-01  0.00000000E+00  0.00000000E+00
  9.97304922E-01  0.00000000E+00 -2.59257374E+00  4.63568190E-01  0.00000000E+00
 -3.41912615E+00 -2.02527879E+00  0.00000000E+00  6.27993216E-01  3.50119786E+00
  0.00000000E+00  3.22699010E+00  4.17318885E+00  0.00000000E+00 -3.91368164E+00
  2.02749201E+00  0.00000000E+00 -5.43066583E+00 -2.41580250E+00  0.00000000E+00
 -2.33684886E+00 -5.95880963E+00  0.00000000E+00  2.25465441E+00 -5.00238417E+00
  0.00000000E+00  3.75895100E+00 -6.13237882E-01  0.00000000E+00  3.27527781E+00
  6.23006505E+00  0.00000000E+00  4.19177672E+00  3.46679621E+00  1.68989137E+00
  4.19177672E+00  3.46679621E+00 -1.68989137E+00
Num ILSW                                   I              100
ILSW                                       I   N=         100
           0           0           0           0           2           0
           0           0           0           0           0          -1
           0           0           0           0           0           0
           0           0           0           0           0           0
           1           0           0           0           0           0
           0           0      100000           0          -1           0
           0           0           0           0           0           0
           0           0           0           1           0           0
           0           0           1           0           0           0
           0           0           4          40           0           0
           0           0           0           0           0           0
           0           0           0           0           0           0
           0           0           0           0           0           0
           0           0           0           0           0           0
           0           0           0           0           0           0
           0           0           0           0           0           0
           0           0           0           0
Num RLSW                                   I               40
RLSW                                       R   N=          40
  1.00000000E+00  1.00000000E+00  1.00000000E+00  1.00000000E+00  1.00000000E+00
  0.00000000E+00  0.00000000E+00  1.00000000E+00  0.00000000E+00  0.00000000E+00
  0.00000000E+00  0.00000000E+00  1.00000000E+00  0.00000000E+00  0.00000000E+00
  0.00000000E+00  0.00000000E+00  1.00000000E+00  0.00000000E+00  0.00000000E+00
  0.00000000E+00  0.00000000E+00  1.00000000E+00  0.00000000E+00  0.00000000E+00
  0.00000000E+00  0.00000000E+00  1.00000000E+00  0.00000000E+00  0.00000000E+00
  0.00000000E+00  0.00000000E+00  0.00000000E+00  0.00000000E+00  0.00000000E+00
  0.00000000E+00  0.00000000E+00  0.00000000E+00  1.00000000E+00  1.00000000E+00
MxBond                                     I                4
NBond                                      I   N=          16
           3           3           3           3           3           3
           2           4           1           1           1           1
           1           1           1           1
IBond                                      I   N=          64
           2           6          11           0           1           3
          12           0           2           4          13           0
           3           5           7           0           4           6
           9           0           1           5          10           0
           4           8           0           0           7          14
          15          16           5           0           0           0
           6           0           0           0           1           0
           0           0           2           0           0           0
           3           0           0           0           8           0
           0           0           8           0           0           0
           8           0           0           0
RBond                                      R   N=          64
  1.50000000E+00  1.50000000E+00  1.00000000E+00  0.00000000E+00  1.50000000E+00
  1.50000000E+00  1.00000000E+00  0.00000000E+00  1.50000000E+00  1.50000000E+00
  1.00000000E+00  0.00000000E+00  1.50000000E+00  1.50000000E+00  1.50000000E+00
  0.00000000E+00  1.50000000E+00  1.50000000E+00  1.00000000E+00  0.00000000E+00
  1.50000000E+00  1.50000000E+00  1.00000000E+00  0.00000000E+00  1.50000000E+00
  1.00000000E+00  0.00000000E+00  0.00000000E+00  1.00000000E+00  1.00000000E+00
  1.00000000E+00  1.00000000E+00  1.00000000E+00  0.00000000E+00  0.00000000E+00
  0.00000000E+00  1.00000000E+00  0.00000000E+00  0.00000000E+00  0.00000000E+00
  1.00000000E+00  0.00000000E+00  0.00000000E+00  0.00000000E+00  1.00000000E+00
  0.00000000E+00  0.00000000E+00  0.00000000E+00  1.00000000E+00  0.00000000E+00
  0.00000000E+00  0.00000000E+00  1.00000000E+00  0.00000000E+00  0.00000000E+00
  0.00000000E+00  1.00000000E+00  0.00000000E+00  0.00000000E+00  0.00000000E+00
  1.00000000E+00  0.00000000E+00  0.00000000E+00  0.00000000E+00
Virial Ratio                               R      2.001254490062494E+00
SCF Energy                                 R     -3.446667434701095E+02
MP2 Energy                                 R     -3.458432223350396E+02
Total Energy                               R     -3.458432223350396E+02
Post-SCF wavefunction norm                 R      1.184733268933183E+00
RMS Density                                R      7.438959485407216E-09
External E-field                           R   N=          35
  0.00000000E+00  0.00000000E+00  0.00000000E+00  0.00000000E+00  0.00000000E+00
  0.00000000E+00  0.00000000E+00  0.00000000E+00  0.00000000E+00  0.00000000E+00
  0.00000000E+00  0.00000000E+00  0.00000000E+00  0.00000000E+00  0.00000000E+00
  0.00000000E+00  0.00000000E+00  0.00000000E+00  0.00000000E+00  0.00000000E+00
  0.00000000E+00  0.00000000E+00  0.00000000E+00  0.00000000E+00  0.00000000E+00
  0.00000000E+00  0.00000000E+00  0.00000000E+00  0.00000000E+00  0.00000000E+00
  0.00000000E+00  0.00000000E+00  0.00000000E+00  0.00000000E+00  0.00000000E+00
IOpCl                                      I                0
IROHF                                      I                0
Alpha Orbital Energies                     R   N=         232
 -2.05841218E+01 -1.13037322E+01 -1.12873378E+01 -1.12421398E+01 -1.12404023E+01
 -1.12338613E+01 -1.12289947E+01 -1.12283618E+01 -1.40943549E+00 -1.14871429E+00
 -1.02387451E+00 -1.01622751E+00 -9.42858391E-01 -8.34328895E-01 -8.08913422E-01
 -7.22272343E-01 -6.65850634E-01 -6.62784056E-01 -6.54203630E-01 -6.20831955E-01
 -5.91291750E-01 -5.78185177E-01 -5.26753863E-01 -5.26375655E-01 -5.14085255E-01
 -4.82561538E-01 -4.67780054E-01 -3.40663878E-01 -3.12406172E-01  3.78582795E-02
  4.71420644E-02  5.03996532E-02  6.33829593E-02  6.69976088E-02  7.38616409E-02
  8.39530483E-02  1.01039686E-01  1.09161302E-01  1.16228052E-01  1.24813218E-01
  1.38618694E-01  1.41541975E-01  1.50069120E-01  1.70129264E-01  1.75657210E-01
  1.75918891E-01  1.79279755E-01  1.83613880E-01  1.83735891E-01  1.86670481E-01
  1.96074632E-01  2.00948612E-01  2.13847778E-01  2.15659797E-01  2.18714113E-01
  2.23835943E-01  2.28894705E-01  2.37745081E-01  2.38107301E-01  2.41324391E-01
  2.53746403E-01  2.73784935E-01  2.85623204E-01  2.96929144E-01  3.02728959E-01
  3.09928765E-01  3.17262025E-01  3.24244794E-01  3.38889510E-01  3.71594236E-01
  3.75102707E-01  3.92061243E-01  3.97921846E-01  4.04651515E-01  4.15686815E-01
  4.25390937E-01  4.36238237E-01  4.39382138E-01  4.41711646E-01  4.61740712E-01
  4.77769147E-01  4.98918646E-01  5.08446872E-01  5.33668153E-01  5.58674541E-01
  5.70189123E-01  5.84226209E-01  6.27530479E-01  6.74330687E-01  7.20954691E-01
  7.25060942E-01  7.27939938E-01  7.30914142E-01  7.47876972E-01  7.63624698E-01
  7.66730422E-01  7.78128951E-01  8.13680921E-01  8.21055830E-01  8.27633178E-01
  8.33785554E-01  8.44195955E-01  8.49786900E-01  8.89584870E-01  8.96695359E-01
  9.36384178E-01  9.51828819E-01  9.56256230E-01  9.68928771E-01  9.96111360E-01
  1.00895171E+00  1.01237652E+00  1.04259532E+00  1.05334755E+00  1.07255497E+00