 Entering Gaussian System, Link 0=g09
 Initial command:
 /apps/software//g09/l1.exe /scratch/itamar/2471.cluster.abaxnet/Gau-28313.inp -scrdir=/scratch/itamar/2471.cluster.abaxnet/
 Entering Link 1 = /apps/software//g09/l1.exe PID=     28314.
  
 Copyright (c) 1988,1990,1992,1993,1995,1998,2003,2009, Gaussian, Inc.
                  All Rights Reserved.
  
 This is part of the Gaussian(R) 09 program.  It is based on
 the Gaussian(R) 03 system (copyright 2003, Gaussian, Inc.),
 the Gaussian(R) 98 system (copyright 1998, Gaussian, Inc.),
 the Gaussian(R) 94 system (copyright 1995, Gaussian, Inc.),
 the Gaussian 92(TM) system (copyright 1992, Gaussian, Inc.),
 the Gaussian 90(TM) system (copyright 1990, Gaussian, Inc.),
 the Gaussian 88(TM) system (copyright 1988, Gaussian, Inc.),
 the Gaussian 86(TM) system (copyright 1986, Carnegie Mellon
 University), and the Gaussian 82(TM) system (copyright 1983,
 Carnegie Mellon University). Gaussian is a federally registered
 trademark of Gaussian, Inc.
  
 This software contains proprietary and confidential information,
 including trade secrets, belonging to Gaussian, Inc.
  
 This software is provided under written license and may be
 used, copied, transmitted, or stored only in accord with that
 written license.
  
 The following legend is applicable only to US Government
 contracts under FAR:
  
                    RESTRICTED RIGHTS LEGEND
  
 Use, reproduction and disclosure by the US Government is
 subject to restrictions as set forth in subparagraphs (a)
 and (c) of the Commercial Computer Software - Restricted
 Rights clause in FAR 52.227-19.
  
 Gaussian, Inc.
 340 Quinnipiac St., Bldg. 40, Wallingford CT 06492
  
  
 ---------------------------------------------------------------
 Warning -- This program may not be used in any manner that
 competes with the business of Gaussian, Inc. or will provide
 assistance to any competitor of Gaussian, Inc.  The licensee
 of this program is prohibited from giving any competitor of
 Gaussian, Inc. access to this program.  By using this program,
 the user acknowledges that Gaussian, Inc. is engaged in the
 business of creating and licensing software in the field of
 computational chemistry and represents and warrants to the
 licensee that it is not a competitor of Gaussian, Inc. and that
 it will not use this program in any manner prohibited above.
 ---------------------------------------------------------------
  

 Cite this work as:
 Gaussian 09, Revision A.02,
 M. J. Frisch, G. W. Trucks, H. B. Schlegel, G. E. Scuseria, 
 M. A. Robb, J. R. Cheeseman, G. Scalmani, V. Barone, B. Mennucci, 
 G. A. Petersson, H. Nakatsuji, M. Caricato, X. Li, H. P. Hratchian, 
 A. F. Izmaylov, J. Bloino, G. Zheng, J. L. Sonnenberg, M. Hada, 
 M. Ehara, K. Toyota, R. Fukuda, J. Hasegawa, M. Ishida, T. Nakajima, 
 Y. Honda, O. Kitao, H. Nakai, T. Vreven, J. A. Montgomery, Jr., 
 J. E. Peralta, F. Ogliaro, M. Bearpark, J. J. Heyd, E. Brothers, 
 K. N. Kudin, V. N. Staroverov, R. Kobayashi, J. Normand, 
 K. Raghavachari, A. Rendell, J. C. Burant, S. S. Iyengar, J. Tomasi, 
 M. Cossi, N. Rega, J. M. Millam, M. Klene, J. E. Knox, J. B. Cross, 
 V. Bakken, C. Adamo, J. Jaramillo, R. Gomperts, R. E. Stratmann, 
 O. Yazyev, A. J. Austin, R. Cammi, C. Pomelli, J. W. Ochterski, 
 R. L. Martin, K. Morokuma, V. G. Zakrzewski, G. A. Voth, 
 P. Salvador, J. J. Dannenberg, S. Dapprich, A. D. Daniels, 
 O. Farkas, J. B. Foresman, J. V. Ortiz, J. Cioslowski, 
 and D. J. Fox, Gaussian, Inc., Wallingford CT, 2009.
 
 ******************************************
 Gaussian 09:  EM64L-G09RevA.02 11-Jun-2009
                 3-Dec-2021 
 ******************************************
 %Mem=3800MB
 %NProcShared=6
 Will use up to    6 processors via shared memory.
 %chk=/home/itamar/Aromaticity-test-set/T6-Subst-Complex-in-Benzene/OCH3/och3.chk
 -----------------------------
 #P MP2/6-311++G** DENSITY=MP2
 -----------------------------
 1/30=1,38=1/1;
 2/12=2,17=6,18=5,40=1/2;
 3/5=4,6=6,7=1111,11=9,16=1,25=1,30=1,71=1/1,2,3;
 4//1;
 5/5=2,38=5/2;
 8/6=4,10=2/1;
 9/15=1,16=-3/6;
 10/5=1,13=10/2;
 6/7=2,8=2,9=2,10=2,22=2/1;
 99/5=1,9=1/99;
 Leave Link    1 at Fri Dec  3 14:22:08 2021, MaxMem=  498073600 cpu:       0.2
 (Enter /apps/software//g09/l101.exe)
 ------
 X=OCH3
 ------
 Symbolic Z-matrix:
 Charge =  0 Multiplicity = 1
 6                    -0.89175  -2.12622   0. 
 6                     0.4686   -1.84028   0. 
 6                     0.92525  -0.51945   0. 
 6                     0.        0.52775   0. 
 6                    -1.37193   0.24531   0. 
 6                    -1.80932  -1.07173   0. 
 8                     0.33232   1.85275   0. 
 6                     1.70765   2.20836   0. 
 1                    -2.07103   1.0729    0. 
 1                    -2.87379  -1.27839   0. 
 1                    -1.23661  -3.15327   0. 
 1                     1.19311  -2.64715   0. 
 1                     1.98915  -0.32451   0. 
 1                     1.7332    3.29681   0. 
 1                     2.21819   1.83455   0.89425 
 1                     2.21819   1.83455  -0.89425 
 
 NAtoms=     16 NQM=     16 NQMF=      0 NMic=      0 NMicF=      0 NTot=     16.
                    Isotopes and Nuclear Properties:
 (Nuclear quadrupole moments (NQMom) in fm**2, nuclear magnetic moments (NMagM)
  in nuclear magnetons)

  Atom         1           2           3           4           5           6           7           8           9          10
 IAtWgt=          12          12          12          12          12          12          16          12           1           1
 AtmWgt=  12.0000000  12.0000000  12.0000000  12.0000000  12.0000000  12.0000000  15.9949146  12.0000000   1.0078250   1.0078250
 NucSpn=           0           0           0           0           0           0           0           0           1           1
 AtZEff=   0.0000000   0.0000000   0.0000000   0.0000000   0.0000000   0.0000000   0.0000000   0.0000000   0.0000000   0.0000000
 NQMom=    0.0000000   0.0000000   0.0000000   0.0000000   0.0000000   0.0000000   0.0000000   0.0000000   0.0000000   0.0000000
 NMagM=    0.0000000   0.0000000   0.0000000   0.0000000   0.0000000   0.0000000   0.0000000   0.0000000   2.7928460   2.7928460

  Atom        11          12          13          14          15          16
 IAtWgt=           1           1           1           1           1           1
 AtmWgt=   1.0078250   1.0078250   1.0078250   1.0078250   1.0078250   1.0078250
 NucSpn=           1           1           1           1           1           1
 AtZEff=   0.0000000   0.0000000   0.0000000   0.0000000   0.0000000   0.0000000
 NQMom=    0.0000000   0.0000000   0.0000000   0.0000000   0.0000000   0.0000000
 NMagM=    2.7928460   2.7928460   2.7928460   2.7928460   2.7928460   2.7928460
 Leave Link  101 at Fri Dec  3 14:22:08 2021, MaxMem=  498073600 cpu:       0.4
 (Enter /apps/software//g09/l202.exe)
                          Input orientation:                          
 ---------------------------------------------------------------------
 Center     Atomic      Atomic             Coordinates (Angstroms)
 Number     Number       Type             X           Y           Z
 ---------------------------------------------------------------------
      1          6           0       -0.891747   -2.126216    0.000000
      2          6           0        0.468599   -1.840275    0.000000
      3          6           0        0.925254   -0.519450    0.000000
      4          6           0        0.000000    0.527751    0.000000
      5          6           0       -1.371931    0.245310    0.000000
      6          6           0       -1.809324   -1.071731    0.000000
      7          8           0        0.332320    1.852754    0.000000
      8          6           0        1.707650    2.208356    0.000000
      9          1           0       -2.071031    1.072903    0.000000
     10          1           0       -2.873785   -1.278387    0.000000
     11          1           0       -1.236608   -3.153266    0.000000
     12          1           0        1.193111   -2.647148    0.000000
     13          1           0        1.989151   -0.324512    0.000000
     14          1           0        1.733203    3.296808    0.000000
     15          1           0        2.218193    1.834549    0.894252
     16          1           0        2.218193    1.834549   -0.894252
 ---------------------------------------------------------------------
                    Distance matrix (angstroms):
                    1          2          3          4          5
     1  C    0.000000
     2  C    1.390073   0.000000
     3  C    2.425529   1.397538   0.000000
     4  C    2.799777   2.413945   1.397399   0.000000
     5  C    2.419651   2.781585   2.421140   1.400703   0.000000
     6  C    1.397815   2.404078   2.789791   2.414953   1.387771
     7  O    4.162997   3.695543   2.445184   1.366042   2.342722
     8  C    5.054244   4.233989   2.837793   2.395934   3.652036
     9  H    3.409556   3.864754   3.393127   2.141579   1.083352
    10  H    2.155757   3.389284   3.874104   3.394227   2.139443
    11  H    1.083402   2.152133   3.407438   3.883180   3.401269
    12  H    2.148954   1.084418   2.144492   3.391681   3.865974
    13  H    3.397898   2.147002   1.081609   2.164041   3.409042
    14  H    6.024911   5.290448   3.900847   3.266752   4.353561
    15  H    5.114594   4.167145   2.830669   2.725397   4.026706
    16  H    5.114594   4.167145   2.830669   2.725397   4.026706
                    6          7          8          9         10
     6  C    0.000000
     7  O    3.624811   0.000000
     8  C    4.809166   1.420558   0.000000
     9  H    2.160543   2.526710   3.945590   0.000000
    10  H    1.084336   4.481423   5.757336   2.484548   0.000000
    11  H    2.158887   5.246120   6.116833   4.307757   2.489080
    12  H    3.390657   4.581493   4.882691   4.949081   4.291055
    13  H    3.871272   2.735978   2.548463   4.293931   4.955605
    14  H    5.624378   2.011906   1.088752   4.406580   6.492823
    15  H    5.046488   2.087231   1.095478   4.447160   6.034757
    16  H    5.046488   2.087231   1.095478   4.447160   6.034757
                   11         12         13         14         15
    11  H    0.000000
    12  H    2.481872   0.000000
    13  H    4.290381   2.455263   0.000000
    14  H    7.100932   5.968443   3.630354   0.000000
    15  H    6.132996   4.683598   2.348125   1.781321   0.000000
    16  H    6.132996   4.683598   2.348125   1.781321   1.788504
                   16
    16  H    0.000000
 Stoichiometry    C7H8O
 Framework group  CS[SG(C7H6O),X(H2)]
 Deg. of freedom    28
 Full point group                 CS      NOp   2
 Largest Abelian subgroup         CS      NOp   2
 Largest concise Abelian subgroup CS      NOp   2
                         Standard orientation:                         
 ---------------------------------------------------------------------
 Center     Atomic      Atomic             Coordinates (Angstroms)
 Number     Number       Type             X           Y           Z
 ---------------------------------------------------------------------
      1          6           0       -0.891746   -2.126216    0.000000
      2          6           0        0.468600   -1.840275    0.000000
      3          6           0        0.925254   -0.519450    0.000000
      4          6           0        0.000000    0.527751    0.000000
      5          6           0       -1.371931    0.245310    0.000000
      6          6           0       -1.809324   -1.071731    0.000000
      7          8           0        0.332320    1.852754    0.000000
      8          6           0        1.707650    2.208356    0.000000
      9          1           0       -2.071031    1.072903    0.000000
     10          1           0       -2.873785   -1.278388    0.000000
     11          1           0       -1.236607   -3.153266    0.000000
     12          1           0        1.193112   -2.647148    0.000000
     13          1           0        1.989151   -0.324512    0.000000
     14          1           0        1.733202    3.296808    0.000000
     15          1           0        2.218193    1.834550    0.894252
     16          1           0        2.218193    1.834550   -0.894252
 ---------------------------------------------------------------------
 Rotational constants (GHZ):      5.0536810      1.5603053      1.2013500
 Leave Link  202 at Fri Dec  3 14:22:08 2021, MaxMem=  498073600 cpu:       0.1
 (Enter /apps/software//g09/l301.exe)
 Standard basis: 6-311++G(d,p) (5D, 7F)
 Ernie: Thresh=  0.10000D-02 Tol=  0.10000D-05 Strict=F.
 There are   171 symmetry adapted basis functions of A'  symmetry.
 There are    61 symmetry adapted basis functions of A"  symmetry.
 Integral buffers will be    131072 words long.
 Raffenetti 1 integral format.
 Two-electron integral symmetry is turned on.
   232 basis functions,   360 primitive gaussians,   240 cartesian basis functions
    29 alpha electrons       29 beta electrons
       nuclear repulsion energy       345.5082150086 Hartrees.
 IExCor=    0 DFT=F Ex=HF Corr=None ExCW=0 ScaHFX=  1.000000
 ScaDFX=  1.000000  1.000000  1.000000  1.000000 ScalE2=  1.000000  1.000000
 IRadAn=      0 IRanWt=     -1 IRanGd=            0 ICorTp=0
 NAtoms=   16 NActive=   16 NUniq=   15 SFac= 8.53D-01 NAtFMM=   80 NAOKFM=F Big=F
 Leave Link  301 at Fri Dec  3 14:22:08 2021, MaxMem=  498073600 cpu:       0.4
 (Enter /apps/software//g09/l302.exe)
 NPDir=0 NMtPBC=     1 NCelOv=     1 NCel=       1 NClECP=     1 NCelD=      1
         NCelK=      1 NCelE2=     1 NClLst=     1 CellRange=     0.0.
 One-electron integrals computed using PRISM.
 One-electron integral symmetry used in STVInt
 NBasis=   232 RedAO= T  NBF=   171    61
 NBsUse=   232 1.00D-06 NBFU=   171    61
 Leave Link  302 at Fri Dec  3 14:22:08 2021, MaxMem=  498073600 cpu:       1.4
 (Enter /apps/software//g09/l303.exe)
 DipDrv:  MaxL=1.
 Leave Link  303 at Fri Dec  3 14:22:08 2021, MaxMem=  498073600 cpu:       0.3
 (Enter /apps/software//g09/l401.exe)
 Harris functional with IExCor=  205 diagonalized for initial guess.
 ExpMin= 3.60D-02 ExpMax= 8.59D+03 ExpMxC= 1.30D+03 IAcc=3 IRadAn=         0 AccDes= 0.00D+00
 HarFok:  IExCor=  205 AccDes= 0.00D+00 IRadAn=         0 IDoV= 1
 ScaDFX=  1.000000  1.000000  1.000000  1.000000
 FoFCou: FMM=F IPFlag=           0 FMFlag=      100000 FMFlg1=           0
         NFxFlg=           0 DoJE=T BraDBF=F KetDBF=T FulRan=T
         Omega=  0.000000  0.000000  1.000000  0.000000  0.000000 ICntrl=     500 IOpCl=  0
         NMat0=    1 NMatS0=    1 NMatT0=    0 NMatD0=    1 NMtDS0=    0 NMtDT0=    0
         I1Cent=           4 NGrid=           0.
 Petite list used in FoFCou.
 Harris En= -345.173428770887    
 Initial guess orbital symmetries:
       Occupied  (A') (A') (A') (A') (A') (A') (A') (A') (A') (A')
                 (A') (A') (A') (A') (A') (A') (A') (A') (A') (A")
                 (A') (A') (A') (A") (A') (A') (A") (A") (A")
       Virtual   (A") (A") (A') (A') (A') (A") (A') (A') (A') (A")
                 (A') (A') (A') (A") (A") (A') (A') (A") (A') (A')
                 (A') (A') (A") (A') (A') (A') (A') (A') (A") (A')
                 (A") (A') (A') (A") (A') (A') (A') (A') (A") (A')
                 (A') (A') (A') (A') (A') (A') (A") (A') (A') (A')
                 (A') (A') (A') (A') (A') (A') (A') (A") (A') (A')
                 (A') (A") (A') (A') (A') (A') (A") (A") (A') (A")
                 (A') (A") (A") (A') (A') (A") (A') (A') (A') (A')
                 (A') (A') (A') (A') (A') (A') (A') (A') (A') (A')
                 (A") (A") (A') (A") (A') (A") (A') (A") (A') (A")
                 (A') (A") (A") (A') (A') (A') (A') (A") (A') (A')
                 (A') (A') (A") (A") (A") (A') (A") (A') (A') (A")
                 (A') (A') (A') (A") (A") (A') (A') (A') (A") (A')
                 (A") (A') (A') (A') (A") (A') (A') (A') (A") (A')
                 (A") (A') (A") (A') (A") (A') (A') (A') (A") (A')
                 (A') (A') (A") (A") (A') (A') (A") (A') (A") (A')
                 (A') (A') (A') (A') (A') (A") (A") (A') (A') (A')
                 (A") (A") (A') (A') (A') (A") (A') (A') (A') (A')
                 (A') (A') (A') (A") (A') (A') (A') (A') (A') (A')
                 (A') (A') (A") (A') (A') (A') (A') (A') (A') (A')
                 (A') (A') (A')
 The electronic state of the initial guess is 1-A'.
 Leave Link  401 at Fri Dec  3 14:22:09 2021, MaxMem=  498073600 cpu:       4.0
 (Enter /apps/software//g09/l502.exe)
 Closed shell SCF:
 Requested convergence on RMS density matrix=1.00D-08 within 128 cycles.
 Requested convergence on MAX density matrix=1.00D-06.
 Requested convergence on             energy=1.00D-06.
 No special actions if energy rises.
 Using DIIS extrapolation, IDIIS=  1040.
 Integral symmetry usage will be decided dynamically.
 Keep R1 ints in memory in canonical form, NReq=425390812.
 IEnd=      194498 IEndB=      194498 NGot=   498073600 MDV=    79755895
 LenX=    79755895 LenY=    79697854
 Symmetry not used in FoFDir.
 MinBra= 0 MaxBra= 2 Meth= 1.
 IRaf=       0 NMat=   1 IRICut=       1 DoRegI=T DoRafI=F ISym2E= 0 JSym2E=0.

 Cycle   1  Pass 1  IDiag  1:
 E= -344.293623323734    
 DIIS: error= 6.02D-02 at cycle   1 NSaved=   1.
 NSaved= 1 IEnMin= 1 EnMin= -344.293623323734     IErMin= 1 ErrMin= 6.02D-02
 ErrMax= 6.02D-02 EMaxC= 1.00D-01 BMatC= 7.08D-01 BMatP= 7.08D-01
 IDIUse=3 WtCom= 3.98D-01 WtEn= 6.02D-01
 Coeff-Com:  0.100D+01
 Coeff-En:   0.100D+01
 Coeff:      0.100D+01
 Gap=     0.378 Goal=   None    Shift=    0.000
 GapD=    0.378 DampG=1.000 DampE=0.500 DampFc=0.5000 IDamp=-1.
 Damping current iteration by 5.00D-01
 RMSDP=2.26D-02 MaxDP=2.07D+00              OVMax= 1.68D-01

 Cycle   2  Pass 1  IDiag  1:
 E= -344.488977232058     Delta-E=       -0.195353908324 Rises=F Damp=T
 DIIS: error= 3.19D-02 at cycle   2 NSaved=   2.
 NSaved= 2 IEnMin= 2 EnMin= -344.488977232058     IErMin= 2 ErrMin= 3.19D-02
 ErrMax= 3.19D-02 EMaxC= 1.00D-01 BMatC= 1.57D-01 BMatP= 7.08D-01
 IDIUse=3 WtCom= 6.81D-01 WtEn= 3.19D-01
 Coeff-Com: -0.724D+00 0.172D+01
 Coeff-En:   0.000D+00 0.100D+01
 Coeff:     -0.493D+00 0.149D+01
 Gap=     0.361 Goal=   None    Shift=    0.000
 RMSDP=8.37D-03 MaxDP=8.62D-01 DE=-1.95D-01 OVMax= 5.35D-02

 Cycle   3  Pass 1  IDiag  1:
 E= -344.664599078577     Delta-E=       -0.175621846520 Rises=F Damp=F
 DIIS: error= 3.67D-03 at cycle   3 NSaved=   3.
 NSaved= 3 IEnMin= 3 EnMin= -344.664599078577     IErMin= 3 ErrMin= 3.67D-03
 ErrMax= 3.67D-03 EMaxC= 1.00D-01 BMatC= 1.90D-03 BMatP= 1.57D-01
 IDIUse=3 WtCom= 9.63D-01 WtEn= 3.67D-02
 Coeff-Com: -0.997D-01 0.169D+00 0.931D+00
 Coeff-En:   0.000D+00 0.000D+00 0.100D+01
 Coeff:     -0.961D-01 0.163D+00 0.933D+00
 Gap=     0.352 Goal=   None    Shift=    0.000
 RMSDP=3.17D-03 MaxDP=3.64D-01 DE=-1.76D-01 OVMax= 1.81D-02

 Cycle   4  Pass 1  IDiag  1:
 E= -344.666440048275     Delta-E=       -0.001840969698 Rises=F Damp=F
 DIIS: error= 1.50D-03 at cycle   4 NSaved=   4.
 NSaved= 4 IEnMin= 4 EnMin= -344.666440048275     IErMin= 4 ErrMin= 1.50D-03
 ErrMax= 1.50D-03 EMaxC= 1.00D-01 BMatC= 2.71D-04 BMatP= 1.90D-03
 IDIUse=3 WtCom= 9.85D-01 WtEn= 1.50D-02
 Coeff-Com: -0.103D-01 0.562D-02 0.261D+00 0.744D+00
 Coeff-En:   0.000D+00 0.000D+00 0.000D+00 0.100D+01
 Coeff:     -0.101D-01 0.553D-02 0.257D+00 0.748D+00
 Gap=     0.349 Goal=   None    Shift=    0.000
 RMSDP=4.29D-04 MaxDP=2.11D-02 DE=-1.84D-03 OVMax= 4.44D-03

 Cycle   5  Pass 1  IDiag  1:
 E= -344.666704637918     Delta-E=       -0.000264589643 Rises=F Damp=F
 DIIS: error= 5.65D-04 at cycle   5 NSaved=   5.
 NSaved= 5 IEnMin= 5 EnMin= -344.666704637918     IErMin= 5 ErrMin= 5.65D-04
 ErrMax= 5.65D-04 EMaxC= 1.00D-01 BMatC= 1.95D-05 BMatP= 2.71D-04
 IDIUse=3 WtCom= 9.94D-01 WtEn= 5.65D-03
 Coeff-Com:  0.909D-02-0.169D-01-0.600D-01 0.969D-01 0.971D+00
 Coeff-En:   0.000D+00 0.000D+00 0.000D+00 0.000D+00 0.100D+01
 Coeff:      0.904D-02-0.168D-01-0.596D-01 0.963D-01 0.971D+00
 Gap=     0.350 Goal=   None    Shift=    0.000
 RMSDP=1.75D-04 MaxDP=1.71D-02 DE=-2.65D-04 OVMax= 2.55D-03

 Cycle   6  Pass 1  IDiag  1:
 E= -344.666739056134     Delta-E=       -0.000034418216 Rises=F Damp=F
 DIIS: error= 1.12D-04 at cycle   6 NSaved=   6.
 NSaved= 6 IEnMin= 6 EnMin= -344.666739056134     IErMin= 6 ErrMin= 1.12D-04
 ErrMax= 1.12D-04 EMaxC= 1.00D-01 BMatC= 1.85D-06 BMatP= 1.95D-05
 IDIUse=3 WtCom= 9.99D-01 WtEn= 1.12D-03
 Coeff-Com:  0.225D-02-0.326D-02-0.257D-01-0.685D-01 0.796D-01 0.102D+01
 Coeff-En:   0.000D+00 0.000D+00 0.000D+00 0.000D+00 0.000D+00 0.100D+01
 Coeff:      0.224D-02-0.325D-02-0.256D-01-0.684D-01 0.795D-01 0.102D+01
 Gap=     0.350 Goal=   None    Shift=    0.000
 RMSDP=7.20D-05 MaxDP=7.23D-03 DE=-3.44D-05 OVMax= 7.23D-04

 Cycle   7  Pass 1  IDiag  1:
 E= -344.666742848446     Delta-E=       -0.000003792312 Rises=F Damp=F
 DIIS: error= 4.15D-05 at cycle   7 NSaved=   7.
 NSaved= 7 IEnMin= 7 EnMin= -344.666742848446     IErMin= 7 ErrMin= 4.15D-05
 ErrMax= 4.15D-05 EMaxC= 1.00D-01 BMatC= 1.62D-07 BMatP= 1.85D-06
 IDIUse=1 WtCom= 1.00D+00 WtEn= 0.00D+00
 Coeff-Com: -0.360D-03 0.718D-03 0.356D-02-0.126D-01-0.527D-01 0.346D-01
 Coeff-Com:  0.103D+01
 Coeff:     -0.360D-03 0.718D-03 0.356D-02-0.126D-01-0.527D-01 0.346D-01
 Coeff:      0.103D+01
 Gap=     0.350 Goal=   None    Shift=    0.000
 RMSDP=1.63D-05 MaxDP=1.10D-03 DE=-3.79D-06 OVMax= 3.33D-04

 Cycle   8  Pass 1  IDiag  1:
 E= -344.666743319828     Delta-E=       -0.000000471382 Rises=F Damp=F
 DIIS: error= 2.31D-05 at cycle   8 NSaved=   8.
 NSaved= 8 IEnMin= 8 EnMin= -344.666743319828     IErMin= 8 ErrMin= 2.31D-05
 ErrMax= 2.31D-05 EMaxC= 1.00D-01 BMatC= 3.02D-08 BMatP= 1.62D-07
 IDIUse=1 WtCom= 1.00D+00 WtEn= 0.00D+00
 Coeff-Com: -0.315D-03 0.425D-03 0.457D-02 0.121D-01-0.696D-02-0.188D+00
 Coeff-Com: -0.537D-01 0.123D+01
 Coeff:     -0.315D-03 0.425D-03 0.457D-02 0.121D-01-0.696D-02-0.188D+00
 Coeff:     -0.537D-01 0.123D+01
 Gap=     0.350 Goal=   None    Shift=    0.000
 RMSDP=1.04D-05 MaxDP=7.08D-04 DE=-4.71D-07 OVMax= 2.61D-04

 Cycle   9  Pass 1  IDiag  1:
 E= -344.666743446544     Delta-E=       -0.000000126716 Rises=F Damp=F
 DIIS: error= 1.07D-05 at cycle   9 NSaved=   9.
 NSaved= 9 IEnMin= 9 EnMin= -344.666743446544     IErMin= 9 ErrMin= 1.07D-05
 ErrMax= 1.07D-05 EMaxC= 1.00D-01 BMatC= 3.74D-09 BMatP= 3.02D-08
 IDIUse=1 WtCom= 1.00D+00 WtEn= 0.00D+00
 Coeff-Com:  0.484D-05-0.301D-04 0.818D-04 0.188D-02 0.375D-02-0.188D-01
 Coeff-Com: -0.816D-01 0.779D-01 0.102D+01
 Coeff:      0.484D-05-0.301D-04 0.818D-04 0.188D-02 0.375D-02-0.188D-01
 Coeff:     -0.816D-01 0.779D-01 0.102D+01
 Gap=     0.350 Goal=   None    Shift=    0.000
 RMSDP=2.27D-06 MaxDP=1.28D-04 DE=-1.27D-07 OVMax= 8.11D-05

 Cycle  10  Pass 1  IDiag  1:
 E= -344.666743463118     Delta-E=       -0.000000016574 Rises=F Damp=F
 DIIS: error= 6.14D-06 at cycle  10 NSaved=  10.
 NSaved=10 IEnMin=10 EnMin= -344.666743463118     IErMin=10 ErrMin= 6.14D-06
 ErrMax= 6.14D-06 EMaxC= 1.00D-01 BMatC= 1.04D-09 BMatP= 3.74D-09
 IDIUse=1 WtCom= 1.00D+00 WtEn= 0.00D+00
 Coeff-Com:  0.811D-04-0.116D-03-0.106D-02-0.254D-02 0.226D-02 0.423D-01
 Coeff-Com:  0.815D-02-0.299D+00 0.102D+00 0.115D+01
 Coeff:      0.811D-04-0.116D-03-0.106D-02-0.254D-02 0.226D-02 0.423D-01
 Coeff:      0.815D-02-0.299D+00 0.102D+00 0.115D+01
 Gap=     0.350 Goal=   None    Shift=    0.000
 RMSDP=1.42D-06 MaxDP=1.31D-04 DE=-1.66D-08 OVMax= 6.21D-05

 Cycle  11  Pass 1  IDiag  1:
 E= -344.666743468956     Delta-E=       -0.000000005839 Rises=F Damp=F
 DIIS: error= 1.95D-06 at cycle  11 NSaved=  11.
 NSaved=11 IEnMin=11 EnMin= -344.666743468956     IErMin=11 ErrMin= 1.95D-06
 ErrMax= 1.95D-06 EMaxC= 1.00D-01 BMatC= 1.80D-10 BMatP= 1.04D-09
 IDIUse=1 WtCom= 1.00D+00 WtEn= 0.00D+00
 Coeff-Com: -0.176D-04 0.285D-04 0.260D-03 0.408D-03-0.160D-02-0.789D-02
 Coeff-Com:  0.190D-01 0.622D-01-0.280D+00-0.253D+00 0.146D+01
 Coeff:     -0.176D-04 0.285D-04 0.260D-03 0.408D-03-0.160D-02-0.789D-02
 Coeff:      0.190D-01 0.622D-01-0.280D+00-0.253D+00 0.146D+01
 Gap=     0.350 Goal=   None    Shift=    0.000
 RMSDP=6.02D-07 MaxDP=5.03D-05 DE=-5.84D-09 OVMax= 3.06D-05

 Cycle  12  Pass 1  IDiag  1:
 E= -344.666743470063     Delta-E=       -0.000000001107 Rises=F Damp=F
 DIIS: error= 5.17D-07 at cycle  12 NSaved=  12.
 NSaved=12 IEnMin=12 EnMin= -344.666743470063     IErMin=12 ErrMin= 5.17D-07
 ErrMax= 5.17D-07 EMaxC= 1.00D-01 BMatC= 1.05D-11 BMatP= 1.80D-10
 IDIUse=1 WtCom= 1.00D+00 WtEn= 0.00D+00
 Coeff-Com: -0.846D-05 0.123D-04 0.116D-03 0.284D-03-0.374D-03-0.464D-02
 Coeff-Com:  0.143D-02 0.322D-01-0.289D-01-0.108D+00 0.721D-01 0.104D+01
 Coeff:     -0.846D-05 0.123D-04 0.116D-03 0.284D-03-0.374D-03-0.464D-02
 Coeff:      0.143D-02 0.322D-01-0.289D-01-0.108D+00 0.721D-01 0.104D+01
 Gap=     0.350 Goal=   None    Shift=    0.000
 RMSDP=1.34D-07 MaxDP=8.04D-06 DE=-1.11D-09 OVMax= 4.74D-06

 Cycle  13  Pass 1  IDiag  1:
 E= -344.666743470103     Delta-E=       -0.000000000040 Rises=F Damp=F
 DIIS: error= 1.43D-07 at cycle  13 NSaved=  13.
 NSaved=13 IEnMin=13 EnMin= -344.666743470103     IErMin=13 ErrMin= 1.43D-07
 ErrMax= 1.43D-07 EMaxC= 1.00D-01 BMatC= 1.64D-12 BMatP= 1.05D-11
 IDIUse=1 WtCom= 1.00D+00 WtEn= 0.00D+00
 Coeff-Com:  0.121D-05-0.213D-05-0.185D-04-0.831D-05 0.154D-03 0.363D-03
 Coeff-Com: -0.214D-02-0.429D-02 0.294D-01 0.211D-01-0.184D+00 0.170D+00
 Coeff-Com:  0.970D+00
 Coeff:      0.121D-05-0.213D-05-0.185D-04-0.831D-05 0.154D-03 0.363D-03
 Coeff:     -0.214D-02-0.429D-02 0.294D-01 0.211D-01-0.184D+00 0.170D+00
 Coeff:      0.970D+00
 Gap=     0.350 Goal=   None    Shift=    0.000
 RMSDP=6.31D-08 MaxDP=5.43D-06 DE=-3.96D-11 OVMax= 1.55D-06

 Cycle  14  Pass 1  IDiag  1:
 E= -344.666743470104     Delta-E=       -0.000000000001 Rises=F Damp=F
 DIIS: error= 5.58D-08 at cycle  14 NSaved=  14.
 NSaved=14 IEnMin=14 EnMin= -344.666743470104     IErMin=14 ErrMin= 5.58D-08
 ErrMax= 5.58D-08 EMaxC= 1.00D-01 BMatC= 1.51D-13 BMatP= 1.64D-12
 IDIUse=1 WtCom= 1.00D+00 WtEn= 0.00D+00
 Coeff-Com:  0.763D-06-0.114D-05-0.109D-04-0.247D-04 0.424D-04 0.411D-03
 Coeff-Com: -0.181D-03-0.305D-02 0.381D-02 0.121D-01-0.208D-01-0.758D-01
 Coeff-Com:  0.391D-01 0.104D+01
 Coeff:      0.763D-06-0.114D-05-0.109D-04-0.247D-04 0.424D-04 0.411D-03
 Coeff:     -0.181D-03-0.305D-02 0.381D-02 0.121D-01-0.208D-01-0.758D-01
 Coeff:      0.391D-01 0.104D+01
 Gap=     0.350 Goal=   None    Shift=    0.000
 RMSDP=1.90D-08 MaxDP=1.61D-06 DE=-1.48D-12 OVMax= 3.80D-07

 Cycle  15  Pass 1  IDiag  1:
 E= -344.666743470110     Delta-E=       -0.000000000005 Rises=F Damp=F
 DIIS: error= 3.53D-08 at cycle  15 NSaved=  15.
 NSaved=15 IEnMin=15 EnMin= -344.666743470110     IErMin=15 ErrMin= 3.53D-08
 ErrMax= 3.53D-08 EMaxC= 1.00D-01 BMatC= 3.03D-14 BMatP= 1.51D-13
 IDIUse=1 WtCom= 1.00D+00 WtEn= 0.00D+00
 Coeff-Com: -0.149D-08 0.295D-07 0.878D-06-0.217D-05-0.112D-04 0.734D-05
 Coeff-Com:  0.267D-03 0.362D-04-0.291D-02-0.507D-03 0.192D-01-0.201D-01
 Coeff-Com: -0.124D+00 0.633D-01 0.106D+01
 Coeff:     -0.149D-08 0.295D-07 0.878D-06-0.217D-05-0.112D-04 0.734D-05
 Coeff:      0.267D-03 0.362D-04-0.291D-02-0.507D-03 0.192D-01-0.201D-01
 Coeff:     -0.124D+00 0.633D-01 0.106D+01
 Gap=     0.350 Goal=   None    Shift=    0.000
 RMSDP=7.44D-09 MaxDP=3.40D-07 DE=-5.46D-12 OVMax= 2.48D-07

 SCF Done:  E(RHF) =  -344.666743470     A.U. after   15 cycles
             Convg  =    0.7439D-08             -V/T =  2.0013
 KE= 3.442349042036D+02 PE=-1.496186120636D+03 EE= 4.617762579539D+02
 Leave Link  502 at Fri Dec  3 14:22:32 2021, MaxMem=  498073600 cpu:     136.2
 (Enter /apps/software//g09/l801.exe)
 ExpMin= 3.60D-02 ExpMax= 8.59D+03 ExpMxC= 1.30D+03 IAcc=3 IRadAn=         5 AccDes= 0.00D+00
 HarFok:  IExCor=  205 AccDes= 0.00D+00 IRadAn=         5 IDoV=-2
 ScaDFX=  1.000000  1.000000  1.000000  1.000000
 Largest valence mixing into a core orbital is  1.37D-04
 Largest core mixing into a valence orbital is  4.09D-05
 Range of M.O.s used for correlation:     9   232
 NBasis=   232 NAE=    29 NBE=    29 NFC=     8 NFV=     0
 NROrb=    224 NOA=    21 NOB=    21 NVA=   203 NVB=   203

 **** Warning!!: The largest alpha MO coefficient is  0.22909064D+03

 Leave Link  801 at Fri Dec  3 14:22:32 2021, MaxMem=  498073600 cpu:       2.7
 (Enter /apps/software//g09/l906.exe)
 Frozen-core derivative calculation, NFC=   8 NFV=   0.
 FulOut=F Deriv=T AODrv=F NAtomX=    16
   MMem=          77  MDisk=          21 MDiskD=          21
  W3Min=     1614720 MinDsk=     2217080 NBas6D=         240
 NBas2D=       29256    NTT=       28920    LW2=     2040000
    MDV=   497397097 MDiskM=       28668 NBas2p=       26483
 Fully direct method using O(ONN) memory.
 IMap=   1   2   3   4   5   6   7   8   9  10  11  12  13  14  15  16  17  18  19  20
 IMap=  21  22  23  24  25  26  27  28  29
 JobTyp=1 Pass  1:  I=   9 to  19 NPSUse=  6 ParTrn=T ParDer=T DoDerP=T.
 JobTyp=1 Pass  2:  I=  20 to  29 NPSUse=  6 ParTrn=T ParDer=T DoDerP=T.
 Spin components of T(2) and E(2):
     alpha-alpha T2 =       0.5500162652D-01 E2=     -0.1530157618D+00
     alpha-beta  T2 =       0.2935896655D+00 E2=     -0.8704473412D+00
     beta-beta   T2 =       0.5500162652D-01 E2=     -0.1530157618D+00
 The integrals were generated   2 times.
 ANorm=    0.1184733269D+01
 E2 =    -0.1176478865D+01 EUMP2 =    -0.34584322233504D+03
 Leave Link  906 at Fri Dec  3 14:23:16 2021, MaxMem=  498073600 cpu:     265.7
 (Enter /apps/software//g09/l1002.exe)
 Minotr:  Closed shell wavefunction.
          Computing MP2/KS-MP2 derivatives.
          Using Z-Vector for PSCF gradient.
          Skipping F1 and S1 gradient terms here.
          Frozen-core window.
          Direct CPHF calculation.
          Differentiating once with respect to electric field.
                with respect to dipole field.
          Electric field/nuclear overlap derivatives assumed to be zero.
          Using symmetry in CPHF.
          Requested convergence is 1.0D-10 RMS, and 1.0D-09 maximum.
          NewPWx=F KeepS1=T KeepF1=T KeepIn=T MapXYZ=F SortEE=F KeepMc=T.
          MDV=     498073468 using IRadAn=       0.
          Keep R1 ints in memory in canonical form, NReq=419019441.
 Symmetry not used in FoFDir.
 MinBra= 0 MaxBra= 2 Meth= 1.
 IRaf=       0 NMat=   1 IRICut=       1 DoRegI=T DoRafI=F ISym2E= 0 JSym2E=0.
          Solving linear equations separately, MaxMat=       0.
          There are     1 degrees of freedom in the 1st order CPHF.  IDoFFX=0.
 LinEq1:  Iter=  0 NonCon=     1 RMS=3.38D-03 Max=6.61D-02
 AX will form     1 AO Fock derivatives at one time.
 LinEq1:  Iter=  1 NonCon=     1 RMS=8.27D-04 Max=8.52D-03
 LinEq1:  Iter=  2 NonCon=     1 RMS=3.14D-04 Max=7.86D-03
 LinEq1:  Iter=  3 NonCon=     1 RMS=1.33D-04 Max=3.96D-03
 LinEq1:  Iter=  4 NonCon=     1 RMS=5.48D-05 Max=1.56D-03
 LinEq1:  Iter=  5 NonCon=     1 RMS=1.82D-05 Max=5.72D-04
 LinEq1:  Iter=  6 NonCon=     1 RMS=5.77D-06 Max=1.06D-04
 LinEq1:  Iter=  7 NonCon=     1 RMS=2.29D-06 Max=5.12D-05
 LinEq1:  Iter=  8 NonCon=     1 RMS=6.05D-07 Max=8.17D-06
 LinEq1:  Iter=  9 NonCon=     1 RMS=2.20D-07 Max=4.08D-06
 LinEq1:  Iter= 10 NonCon=     1 RMS=5.38D-08 Max=1.25D-06
 LinEq1:  Iter= 11 NonCon=     1 RMS=2.11D-08 Max=8.06D-07
 LinEq1:  Iter= 12 NonCon=     1 RMS=8.42D-09 Max=3.32D-07
 LinEq1:  Iter= 13 NonCon=     1 RMS=2.87D-09 Max=9.71D-08
 LinEq1:  Iter= 14 NonCon=     1 RMS=1.08D-09 Max=2.18D-08
 LinEq1:  Iter= 15 NonCon=     1 RMS=2.90D-10 Max=3.20D-09
 LinEq1:  Iter= 16 NonCon=     0 RMS=5.41D-11 Max=6.64D-10
 Linear equations converged to 1.000D-10 1.000D-09 after    16 iterations.
 End of Minotr Frequency-dependent properties file   721 does not exist.
 End of Minotr Frequency-dependent properties file   722 does not exist.
 Leave Link 1002 at Fri Dec  3 14:23:41 2021, MaxMem=  498073600 cpu:     148.1
 (Enter /apps/software//g09/l601.exe)
 Copying SCF densities to generalized density rwf, IOpCl= 0 IROHF=0.

 **********************************************************************

            Population analysis using the MP2 density.

 **********************************************************************

 Orbital symmetries:
       Occupied  (A') (A') (A') (A') (A') (A') (A') (A') (A') (A')
                 (A') (A') (A') (A') (A') (A') (A') (A') (A") (A')
                 (A') (A') (A") (A') (A') (A') (A") (A") (A")
       Virtual   (A') (A') (A') (A') (A') (A") (A') (A') (A") (A')
                 (A") (A") (A") (A') (A') (A') (A") (A') (A') (A")
                 (A') (A') (A') (A') (A") (A') (A") (A') (A') (A")
                 (A') (A') (A') (A') (A') (A') (A") (A') (A') (A')
                 (A") (A') (A') (A") (A') (A') (A') (A') (A') (A')
                 (A') (A') (A') (A') (A') (A') (A') (A") (A') (A')
                 (A") (A') (A') (A') (A') (A") (A') (A") (A') (A")
                 (A') (A") (A") (A') (A') (A") (A') (A') (A') (A')
                 (A') (A') (A') (A') (A') (A') (A') (A') (A') (A')
                 (A') (A") (A') (A") (A') (A') (A") (A") (A') (A")
                 (A") (A") (A') (A') (A") (A') (A') (A") (A') (A')
                 (A") (A') (A") (A") (A') (A') (A") (A') (A') (A")
                 (A') (A') (A') (A") (A") (A') (A') (A') (A') (A")
                 (A") (A') (A') (A') (A") (A') (A') (A") (A') (A")
                 (A') (A') (A") (A') (A") (A') (A') (A') (A') (A")
                 (A') (A") (A') (A') (A') (A') (A') (A') (A') (A")
                 (A') (A') (A") (A') (A") (A') (A") (A") (A') (A')
                 (A") (A') (A") (A') (A') (A") (A') (A') (A') (A')
                 (A') (A') (A') (A") (A') (A') (A') (A') (A') (A')
                 (A') (A') (A") (A') (A') (A') (A') (A') (A') (A')
                 (A') (A') (A')
 The electronic state is 1-A'.
 Alpha  occ. eigenvalues --  -20.58412 -11.30373 -11.28734 -11.24214 -11.24040
 Alpha  occ. eigenvalues --  -11.23386 -11.22899 -11.22836  -1.40944  -1.14871
 Alpha  occ. eigenvalues --   -1.02387  -1.01623  -0.94286  -0.83433  -0.80891
 Alpha  occ. eigenvalues --   -0.72227  -0.66585  -0.66278  -0.65420  -0.62083
 Alpha  occ. eigenvalues --   -0.59129  -0.57819  -0.52675  -0.52638  -0.51409
 Alpha  occ. eigenvalues --   -0.48256  -0.46778  -0.34066  -0.31241
 Alpha virt. eigenvalues --    0.03786   0.04714   0.05040   0.06338   0.06700
 Alpha virt. eigenvalues --    0.07386   0.08395   0.10104   0.10916   0.11623
 Alpha virt. eigenvalues --    0.12481   0.13862   0.14154   0.15007   0.17013
 Alpha virt. eigenvalues --    0.17566   0.17592   0.17928   0.18361   0.18374
 Alpha virt. eigenvalues --    0.18667   0.19607   0.20095   0.21385   0.21566
 Alpha virt. eigenvalues --    0.21871   0.22384   0.22889   0.23775   0.23811
 Alpha virt. eigenvalues --    0.24132   0.25375   0.27378   0.28562   0.29693
 Alpha virt. eigenvalues --    0.30273   0.30993   0.31726   0.32424   0.33889
 Alpha virt. eigenvalues --    0.37159   0.37510   0.39206   0.39792   0.40465
 Alpha virt. eigenvalues --    0.41569   0.42539   0.43624   0.43938   0.44171
 Alpha virt. eigenvalues --    0.46174   0.47777   0.49892   0.50845   0.53367
 Alpha virt. eigenvalues --    0.55867   0.57019   0.58423   0.62753   0.67433
 Alpha virt. eigenvalues --    0.72095   0.72506   0.72794   0.73091   0.74788
 Alpha virt. eigenvalues --    0.76362   0.76673   0.77813   0.81368   0.82106
 Alpha virt. eigenvalues --    0.82763   0.83379   0.84420   0.84979   0.88958
 Alpha virt. eigenvalues --    0.89670   0.93638   0.95183   0.95626   0.96893
 Alpha virt. eigenvalues --    0.99611   1.00895   1.01238   1.04260   1.05335
 Alpha virt. eigenvalues --    1.07255   1.08999   1.12146   1.12931   1.14068
 Alpha virt. eigenvalues --    1.16768   1.21199   1.21928   1.23058   1.23446
 Alpha virt. eigenvalues --    1.24903   1.26550   1.32435   1.32458   1.34323
 Alpha virt. eigenvalues --    1.38162   1.40634   1.50045   1.53830   1.54590
 Alpha virt. eigenvalues --    1.60630   1.67411   1.69831   1.73028   1.77286
 Alpha virt. eigenvalues --    1.79367   1.79550   1.83499   1.84491   1.84533
 Alpha virt. eigenvalues --    1.85644   1.88235   1.91434   1.93334   1.96595
 Alpha virt. eigenvalues --    1.98362   1.99162   1.99658   2.01662   2.05640
 Alpha virt. eigenvalues --    2.06203   2.09956   2.13078   2.19185   2.21961
 Alpha virt. eigenvalues --    2.23775   2.24416   2.25406   2.26275   2.27849
 Alpha virt. eigenvalues --    2.33247   2.34686   2.37483   2.38080   2.41401
 Alpha virt. eigenvalues --    2.41477   2.49098   2.58537   2.62695   2.65453
 Alpha virt. eigenvalues --    2.74746   2.79117   2.80015   2.80718   2.81388
 Alpha virt. eigenvalues --    2.84439   2.84754   2.90946   2.95680   2.97915
 Alpha virt. eigenvalues --    2.99248   3.01975   3.03387   3.04782   3.05063
 Alpha virt. eigenvalues --    3.07765   3.10091   3.15915   3.17230   3.19154
 Alpha virt. eigenvalues --    3.20816   3.27982   3.29471   3.29642   3.32330
 Alpha virt. eigenvalues --    3.44598   3.47343   3.48386   3.52531   3.60238
 Alpha virt. eigenvalues --    3.64946   3.73670   3.79939   3.82401   3.91579
 Alpha virt. eigenvalues --    3.93178   4.03105   4.08028   4.17307   4.24480
 Alpha virt. eigenvalues --    4.41163   4.45870   4.52933   4.57141   4.58858
 Alpha virt. eigenvalues --    4.66463   5.28240   5.59985   5.96813   6.36249
 Alpha virt. eigenvalues --   24.76326  25.08195  25.10264  25.13301  25.23714
 Alpha virt. eigenvalues --   25.26847  25.36353  51.67909
          Condensed to atoms (all electrons):
              1          2          3          4          5          6
     1  C   10.997577  -4.606697   3.659638  -4.922946   5.814362  -5.126030
     2  C   -4.606697  14.647242  -6.177888   3.865250  -6.228503   5.072850
     3  C    3.659638  -6.177888  15.823376  -7.009490   1.837286  -3.652952
     4  C   -4.922946   3.865250  -7.009490  20.384908 -12.472599   7.002945
     5  C    5.814362  -6.228503   1.837286 -12.472599  28.357587 -10.933058
     6  C   -5.126030   5.072850  -3.652952   7.002945 -10.933058  13.773302
     7  O    0.036623   0.109487   0.493121  -0.015945  -1.002147   0.041054
     8  C   -0.018338  -0.264100  -0.326376   0.374519  -0.182277   0.088000
     9  H    0.174468  -0.123187   0.024974  -0.510203   1.136657  -0.436887
    10  H   -0.273615   0.112641  -0.022606   0.230349  -0.488341   0.722293
    11  H    0.588887  -0.220065   0.080595  -0.077110   0.166823  -0.256749
    12  H   -0.245629   0.497603  -0.164464   0.159739  -0.044858   0.075834
    13  H    0.124590  -0.292331   0.740439  -0.361830   0.149499  -0.085109
    14  H   -0.001310  -0.027456  -0.046903   0.071221   0.044556  -0.004189
    15  H   -0.007025   0.042926   0.039034  -0.029764  -0.072758   0.014508
    16  H   -0.007025   0.042926   0.039034  -0.029764  -0.072758   0.014508
              7          8          9         10         11         12
     1  C    0.036623  -0.018338   0.174468  -0.273615   0.588887  -0.245629
     2  C    0.109487  -0.264100  -0.123187   0.112641  -0.220065   0.497603
     3  C    0.493121  -0.326376   0.024974  -0.022606   0.080595  -0.164464
     4  C   -0.015945   0.374519  -0.510203   0.230349  -0.077110   0.159739
     5  C   -1.002147  -0.182277   1.136657  -0.488341   0.166823  -0.044858
     6  C    0.041054   0.088000  -0.436887   0.722293  -0.256749   0.075834
     7  O    8.602180   0.074705  -0.030924  -0.001810   0.000859  -0.004764
     8  C    0.074705   5.516713  -0.011298  -0.000750  -0.001451   0.003067
     9  H   -0.030924  -0.011298   0.580787  -0.031710   0.004028  -0.000302
    10  H   -0.001810  -0.000750  -0.031710   0.586693  -0.019876   0.000618
    11  H    0.000859  -0.001451   0.004028  -0.019876   0.575098  -0.016905
    12  H   -0.004764   0.003067  -0.000302   0.000618  -0.016905   0.575569
    13  H   -0.020659  -0.018342   0.001255  -0.000115   0.001752  -0.022284
    14  H   -0.082638   0.391809   0.000689   0.000002  -0.000049   0.000701
    15  H   -0.022862   0.369777  -0.001059   0.000124  -0.000139   0.000483
    16  H   -0.022862   0.369777  -0.001059   0.000124  -0.000139   0.000483
             13         14         15         16
     1  C    0.124590  -0.001310  -0.007025  -0.007025
     2  C   -0.292331  -0.027456   0.042926   0.042926
     3  C    0.740439  -0.046903   0.039034   0.039034
     4  C   -0.361830   0.071221  -0.029764  -0.029764
     5  C    0.149499   0.044556  -0.072758  -0.072758
     6  C   -0.085109  -0.004189   0.014508   0.014508
     7  O   -0.020659  -0.082638  -0.022862  -0.022862
     8  C   -0.018342   0.391809   0.369777   0.369777
     9  H    0.001255   0.000689  -0.001059  -0.001059
    10  H   -0.000115   0.000002   0.000124   0.000124
    11  H    0.001752  -0.000049  -0.000139  -0.000139
    12  H   -0.022284   0.000701   0.000483   0.000483
    13  H    0.597104   0.001262  -0.011801  -0.011801
    14  H    0.001262   0.511661  -0.025847  -0.025847
    15  H   -0.011801  -0.025847   0.615544  -0.062621
    16  H   -0.011801  -0.025847  -0.062621   0.615544
 Mulliken atomic charges:
              1
     1  C   -0.187530
     2  C   -0.450698
     3  C    0.663182
     4  C   -0.659280
     5  C   -0.009472
     6  C   -0.310322
     7  O   -0.153417
     8  C   -0.365433
     9  H    0.223771
    10  H    0.185978
    11  H    0.174441
    12  H    0.185109
    13  H    0.208372
    14  H    0.192337
    15  H    0.151481
    16  H    0.151481
 Sum of Mulliken atomic charges =   0.00000
 Mulliken charges with hydrogens summed into heavy atoms:
              1
     1  C   -0.013089
     2  C   -0.265589
     3  C    0.871554
     4  C   -0.659280
     5  C    0.214299
     6  C   -0.124344
     7  O   -0.153417
     8  C    0.129866
 Sum of Mulliken charges with hydrogens summed into heavy atoms =   0.00000
 Electronic spatial extent (au):  <R**2>=            984.3928
 Charge=              0.0000 electrons
 Dipole moment (field-independent basis, Debye):
    X=              1.3901    Y=              0.0477    Z=              0.0000  Tot=              1.3909
 Quadrupole moment (field-independent basis, Debye-Ang):
   XX=            -41.7074   YY=            -45.3978   ZZ=            -52.5010
   XY=              3.3217   XZ=              0.0000   YZ=              0.0000
 Traceless Quadrupole moment (field-independent basis, Debye-Ang):
   XX=              4.8280   YY=              1.1376   ZZ=             -5.9656
   XY=              3.3217   XZ=              0.0000   YZ=              0.0000
 Octapole moment (field-independent basis, Debye-Ang**2):
  XXX=              2.3811  YYY=              6.0101  ZZZ=              0.0000  XYY=              8.5539
  XXY=              7.4107  XXZ=              0.0000  XZZ=              4.0192  YZZ=              7.8789
  YYZ=              0.0000  XYZ=              0.0000
 Hexadecapole moment (field-independent basis, Debye-Ang**3):
 XXXX=           -475.3252 YYYY=           -727.5044 ZZZZ=            -69.2703 XXXY=           -124.8208
 XXXZ=              0.0000 YYYX=           -108.1759 YYYZ=              0.0000 ZZZX=              0.0000
 ZZZY=              0.0000 XXYY=           -189.9376 XXZZ=           -103.1227 YYZZ=           -154.2836
 XXYZ=              0.0000 YYXZ=              0.0000 ZZXY=            -46.6243
 N-N= 3.455082150086D+02 E-N=-1.497123055841D+03  KE= 3.456613359809D+02
 Symmetry A'   KE= 3.325599428721D+02
 Symmetry A"   KE= 1.310139310883D+01
 No NMR shielding tensors so no spin-rotation constants.
 Leave Link  601 at Fri Dec  3 14:23:42 2021, MaxMem=  498073600 cpu:       1.8
 (Enter /apps/software//g09/l9999.exe)
 1\1\GINC-DLT17\SP\RMP2-FC\6-311++G(d,p)\C7H8O1\ITAMAR\03-Dec-2021\0\\#
 P MP2/6-311++G** DENSITY=MP2\\X=OCH3\\0,1\C,0,-0.891747,-2.126216,0.\C
 ,0,0.468599,-1.840275,0.\C,0,0.925254,-0.51945,0.\C,0,0.,0.527751,0.\C
 ,0,-1.371931,0.24531,0.\C,0,-1.809324,-1.071731,0.\O,0,0.33232,1.85275
 4,0.\C,0,1.70765,2.208356,0.\H,0,-2.071031,1.072903,0.\H,0,-2.873785,-
 1.278387,0.\H,0,-1.236608,-3.153266,0.\H,0,1.193111,-2.647148,0.\H,0,1
 .989151,-0.324512,0.\H,0,1.733203,3.296808,0.\H,0,2.218193,1.834549,0.
 894252\H,0,2.218193,1.834549,-0.894252\\Version=EM64L-G09RevA.02\State
 =1-A'\HF=-344.6667435\MP2=-345.8432223\RMSD=7.439e-09\Dipole=0.5469185
 ,0.0187477,0.\Quadrupole=3.5894892,0.8457999,-4.4352891,2.4696203,0.,0
 .\PG=CS [SG(C7H6O1),X(H2)]\\@


 HEAVEN'S NET CASTS WIDE.
 THOUGH ITS MESHES ARE COARSE, NOTHING SLIPS THROUGH.

                                          -- LAO-TSU
 Job cpu time:  0 days  0 hours  9 minutes 21.9 seconds.
 File lengths (MBytes):  RWF=     25 Int=      0 D2E=      0 Chk=      5 Scr=      1
 Normal termination of Gaussian 09 at Fri Dec  3 14:23:42 2021.
