Boat-15                                                                 
SP        RMP2-FC                                                     6-311++G(d,p)       
Number of atoms                            I               12
Info1-9                                    I   N=           9
          24          21           0           0           0         110
           1           2           1
Charge                                     I                0
Multiplicity                               I                1
Number of electrons                        I               42
Number of alpha electrons                  I               21
Number of beta electrons                   I               21
Number of basis functions                  I              174
Number of independent functions            I              174
Number of point charges in /Mol/           I                0
Number of translation vectors              I                0
Atomic numbers                             I   N=          12
           6           6           6           6           6           6
           1           1           1           1           1           1
Nuclear charges                            R   N=          12
  6.00000000E+00  6.00000000E+00  6.00000000E+00  6.00000000E+00  6.00000000E+00
  6.00000000E+00  1.00000000E+00  1.00000000E+00  1.00000000E+00  1.00000000E+00
  1.00000000E+00  1.00000000E+00
Current cartesian coordinates              R   N=          36
  3.13121787E-02  2.63309181E+00 -1.14993885E-01 -2.26866910E+00  1.33660902E+00
 -1.14993885E-01 -2.26866910E+00 -1.27877739E+00  2.29076111E-01 -3.13121787E-02
 -2.63309181E+00 -1.14993885E-01  2.26866910E+00 -1.33660902E+00 -1.14993885E-01
  2.26866910E+00  1.27877739E+00  2.29076111E-01  6.45983426E-02  4.68010519E+00
 -1.94060026E-01 -4.03721693E+00  2.36790423E+00 -1.94634503E-01 -4.04896991E+00
 -2.28219418E+00  3.94164476E-01 -6.45983426E-02 -4.68010519E+00 -1.94060026E-01
  4.03721693E+00 -2.36790423E+00 -1.94634503E-01  4.04896991E+00  2.28219418E+00
  3.94164476E-01
Force Field                                I                0
Int Atom Types                             I   N=          12
           0           0           0           0           0           0
           0           0           0           0           0           0
MM charges                                 R   N=          12
  0.00000000E+00  0.00000000E+00  0.00000000E+00  0.00000000E+00  0.00000000E+00
  0.00000000E+00  0.00000000E+00  0.00000000E+00  0.00000000E+00  0.00000000E+00
  0.00000000E+00  0.00000000E+00
Integer atomic weights                     I   N=          12
          12          12          12          12          12          12
           1           1           1           1           1           1
Real atomic weights                        R   N=          12
  1.20000000E+01  1.20000000E+01  1.20000000E+01  1.20000000E+01  1.20000000E+01
  1.20000000E+01  1.00782504E+00  1.00782504E+00  1.00782504E+00  1.00782504E+00
  1.00782504E+00  1.00782504E+00
Atom fragment info                         I   N=          12
           0           0           0           0           0           0
           0           0           0           0           0           0
Atom residue num                           I   N=          12
           0           0           0           0           0           0
           0           0           0           0           0           0
Nuclear spins                              I   N=          12
           0           0           0           0           0           0
           1           1           1           1           1           1
Nuclear ZEff                               R   N=          12
 -3.60000000E+00 -3.60000000E+00 -3.60000000E+00 -3.60000000E+00 -3.60000000E+00
 -3.60000000E+00 -1.00000000E+00 -1.00000000E+00 -1.00000000E+00 -1.00000000E+00
 -1.00000000E+00 -1.00000000E+00
Nuclear QMom                               R   N=          12
  0.00000000E+00  0.00000000E+00  0.00000000E+00  0.00000000E+00  0.00000000E+00
  0.00000000E+00  0.00000000E+00  0.00000000E+00  0.00000000E+00  0.00000000E+00
  0.00000000E+00  0.00000000E+00
Nuclear GFac                               R   N=          12
  0.00000000E+00  0.00000000E+00  0.00000000E+00  0.00000000E+00  0.00000000E+00
  0.00000000E+00  2.79284600E+00  2.79284600E+00  2.79284600E+00  2.79284600E+00
  2.79284600E+00  2.79284600E+00
MicOpt                                     I   N=          12
          -1          -1          -1          -1          -1          -1
          -1          -1          -1          -1          -1          -1
Number of contracted shells                I               66
Number of primitive shells                 I              120
Pure/Cartesian d shells                    I                0
Pure/Cartesian f shells                    I                0
Highest angular momentum                   I                2
Largest degree of contraction              I                6
Shell types                                I   N=          66
           0          -1          -1          -1          -1          -2
           0          -1          -1          -1          -1          -2
           0          -1          -1          -1          -1          -2
           0          -1          -1          -1          -1          -2
           0          -1          -1          -1          -1          -2
           0          -1          -1          -1          -1          -2
           0           0           0           0           1           0
           0           0           0           1           0           0
           0           0           1           0           0           0
           0           1           0           0           0           0
           1           0           0           0           0           1
Number of primitives per shell             I   N=          66
           6           3           1           1           1           1
           6           3           1           1           1           1
           6           3           1           1           1           1
           6           3           1           1           1           1
           6           3           1           1           1           1
           6           3           1           1           1           1
           3           1           1           1           1           3
           1           1           1           1           3           1
           1           1           1           3           1           1
           1           1           3           1           1           1
           1           3           1           1           1           1
Shell to atom map                          I   N=          66
           1           1           1           1           1           1
           2           2           2           2           2           2
           3           3           3           3           3           3
           4           4           4           4           4           4
           5           5           5           5           5           5
           6           6           6           6           6           6
           7           7           7           7           7           8
           8           8           8           8           9           9
           9           9           9          10          10          10
          10          10          11          11          11          11
          11          12          12          12          12          12
Primitive exponents                        R   N=         120
  4.56324000E+03  6.82024000E+02  1.54973000E+02  4.44553000E+01  1.30290000E+01
  1.82773000E+00  2.09642000E+01  4.80331000E+00  1.45933000E+00  4.83456000E-01
  1.45585000E-01  4.38000000E-02  6.26000000E-01  4.56324000E+03  6.82024000E+02
  1.54973000E+02  4.44553000E+01  1.30290000E+01  1.82773000E+00  2.09642000E+01
  4.80331000E+00  1.45933000E+00  4.83456000E-01  1.45585000E-01  4.38000000E-02
  6.26000000E-01  4.56324000E+03  6.82024000E+02  1.54973000E+02  4.44553000E+01
  1.30290000E+01  1.82773000E+00  2.09642000E+01  4.80331000E+00  1.45933000E+00
  4.83456000E-01  1.45585000E-01  4.38000000E-02  6.26000000E-01  4.56324000E+03
  6.82024000E+02  1.54973000E+02  4.44553000E+01  1.30290000E+01  1.82773000E+00
  2.09642000E+01  4.80331000E+00  1.45933000E+00  4.83456000E-01  1.45585000E-01
  4.38000000E-02  6.26000000E-01  4.56324000E+03  6.82024000E+02  1.54973000E+02
  4.44553000E+01  1.30290000E+01  1.82773000E+00  2.09642000E+01  4.80331000E+00
  1.45933000E+00  4.83456000E-01  1.45585000E-01  4.38000000E-02  6.26000000E-01
  4.56324000E+03  6.82024000E+02  1.54973000E+02  4.44553000E+01  1.30290000E+01
  1.82773000E+00  2.09642000E+01  4.80331000E+00  1.45933000E+00  4.83456000E-01
  1.45585000E-01  4.38000000E-02  6.26000000E-01  3.38650000E+01  5.09479000E+00
  1.15879000E+00  3.25840000E-01  1.02741000E-01  3.60000000E-02  7.50000000E-01
  3.38650000E+01  5.09479000E+00  1.15879000E+00  3.25840000E-01  1.02741000E-01
  3.60000000E-02  7.50000000E-01  3.38650000E+01  5.09479000E+00  1.15879000E+00
  3.25840000E-01  1.02741000E-01  3.60000000E-02  7.50000000E-01  3.38650000E+01
  5.09479000E+00  1.15879000E+00  3.25840000E-01  1.02741000E-01  3.60000000E-02
  7.50000000E-01  3.38650000E+01  5.09479000E+00  1.15879000E+00  3.25840000E-01
  1.02741000E-01  3.60000000E-02  7.50000000E-01  3.38650000E+01  5.09479000E+00
  1.15879000E+00  3.25840000E-01  1.02741000E-01  3.60000000E-02  7.50000000E-01
Contraction coefficients                   R   N=         120
  1.96665025E-03  1.52306019E-02  7.61269097E-02  2.60801033E-01  6.16462078E-01
  2.21006028E-01  1.14660081E-01  9.19999648E-01 -3.03068213E-03  1.00000000E+00
  1.00000000E+00  1.00000000E+00  1.00000000E+00  1.96665025E-03  1.52306019E-02
  7.61269097E-02  2.60801033E-01  6.16462078E-01  2.21006028E-01  1.14660081E-01
  9.19999648E-01 -3.03068213E-03  1.00000000E+00  1.00000000E+00  1.00000000E+00
  1.00000000E+00  1.96665025E-03  1.52306019E-02  7.61269097E-02  2.60801033E-01
  6.16462078E-01  2.21006028E-01  1.14660081E-01  9.19999648E-01 -3.03068213E-03
  1.00000000E+00  1.00000000E+00  1.00000000E+00  1.00000000E+00  1.96665025E-03
  1.52306019E-02  7.61269097E-02  2.60801033E-01  6.16462078E-01  2.21006028E-01
  1.14660081E-01  9.19999648E-01 -3.03068213E-03  1.00000000E+00  1.00000000E+00
  1.00000000E+00  1.00000000E+00  1.96665025E-03  1.52306019E-02  7.61269097E-02
  2.60801033E-01  6.16462078E-01  2.21006028E-01  1.14660081E-01  9.19999648E-01
 -3.03068213E-03  1.00000000E+00  1.00000000E+00  1.00000000E+00  1.00000000E+00
  1.96665025E-03  1.52306019E-02  7.61269097E-02  2.60801033E-01  6.16462078E-01
  2.21006028E-01  1.14660081E-01  9.19999648E-01 -3.03068213E-03  1.00000000E+00
  1.00000000E+00  1.00000000E+00  1.00000000E+00  2.54938145E-02  1.90373109E-01
  8.52161486E-01  1.00000000E+00  1.00000000E+00  1.00000000E+00  1.00000000E+00
  2.54938145E-02  1.90373109E-01  8.52161486E-01  1.00000000E+00  1.00000000E+00
  1.00000000E+00  1.00000000E+00  2.54938145E-02  1.90373109E-01  8.52161486E-01
  1.00000000E+00  1.00000000E+00  1.00000000E+00  1.00000000E+00  2.54938145E-02
  1.90373109E-01  8.52161486E-01  1.00000000E+00  1.00000000E+00  1.00000000E+00
  1.00000000E+00  2.54938145E-02  1.90373109E-01  8.52161486E-01  1.00000000E+00
  1.00000000E+00  1.00000000E+00  1.00000000E+00  2.54938145E-02  1.90373109E-01
  8.52161486E-01  1.00000000E+00  1.00000000E+00  1.00000000E+00  1.00000000E+00
P(S=P) Contraction coefficients            R   N=         120
  0.00000000E+00  0.00000000E+00  0.00000000E+00  0.00000000E+00  0.00000000E+00
  0.00000000E+00  4.02486927E-02  2.37593957E-01  8.15853851E-01  1.00000000E+00
  1.00000000E+00  1.00000000E+00  0.00000000E+00  0.00000000E+00  0.00000000E+00
  0.00000000E+00  0.00000000E+00  0.00000000E+00  0.00000000E+00  4.02486927E-02
  2.37593957E-01  8.15853851E-01  1.00000000E+00  1.00000000E+00  1.00000000E+00
  0.00000000E+00  0.00000000E+00  0.00000000E+00  0.00000000E+00  0.00000000E+00
  0.00000000E+00  0.00000000E+00  4.02486927E-02  2.37593957E-01  8.15853851E-01
  1.00000000E+00  1.00000000E+00  1.00000000E+00  0.00000000E+00  0.00000000E+00
  0.00000000E+00  0.00000000E+00  0.00000000E+00  0.00000000E+00  0.00000000E+00
  4.02486927E-02  2.37593957E-01  8.15853851E-01  1.00000000E+00  1.00000000E+00
  1.00000000E+00  0.00000000E+00  0.00000000E+00  0.00000000E+00  0.00000000E+00
  0.00000000E+00  0.00000000E+00  0.00000000E+00  4.02486927E-02  2.37593957E-01
  8.15853851E-01  1.00000000E+00  1.00000000E+00  1.00000000E+00  0.00000000E+00
  0.00000000E+00  0.00000000E+00  0.00000000E+00  0.00000000E+00  0.00000000E+00
  0.00000000E+00  4.02486927E-02  2.37593957E-01  8.15853851E-01  1.00000000E+00
  1.00000000E+00  1.00000000E+00  0.00000000E+00  0.00000000E+00  0.00000000E+00
  0.00000000E+00  0.00000000E+00  0.00000000E+00  0.00000000E+00  0.00000000E+00
  0.00000000E+00  0.00000000E+00  0.00000000E+00  0.00000000E+00  0.00000000E+00
  0.00000000E+00  0.00000000E+00  0.00000000E+00  0.00000000E+00  0.00000000E+00
  0.00000000E+00  0.00000000E+00  0.00000000E+00  0.00000000E+00  0.00000000E+00
  0.00000000E+00  0.00000000E+00  0.00000000E+00  0.00000000E+00  0.00000000E+00
  0.00000000E+00  0.00000000E+00  0.00000000E+00  0.00000000E+00  0.00000000E+00
  0.00000000E+00  0.00000000E+00  0.00000000E+00  0.00000000E+00  0.00000000E+00
  0.00000000E+00  0.00000000E+00  0.00000000E+00  0.00000000E+00  0.00000000E+00
Coordinates of each shell                  R   N=         198
  3.13121787E-02  2.63309181E+00 -1.14993885E-01  3.13121787E-02  2.63309181E+00
 -1.14993885E-01  3.13121787E-02  2.63309181E+00 -1.14993885E-01  3.13121787E-02
  2.63309181E+00 -1.14993885E-01  3.13121787E-02  2.63309181E+00 -1.14993885E-01
  3.13121787E-02  2.63309181E+00 -1.14993885E-01 -2.26866910E+00  1.33660902E+00
 -1.14993885E-01 -2.26866910E+00  1.33660902E+00 -1.14993885E-01 -2.26866910E+00
  1.33660902E+00 -1.14993885E-01 -2.26866910E+00  1.33660902E+00 -1.14993885E-01
 -2.26866910E+00  1.33660902E+00 -1.14993885E-01 -2.26866910E+00  1.33660902E+00
 -1.14993885E-01 -2.26866910E+00 -1.27877739E+00  2.29076111E-01 -2.26866910E+00
 -1.27877739E+00  2.29076111E-01 -2.26866910E+00 -1.27877739E+00  2.29076111E-01
 -2.26866910E+00 -1.27877739E+00  2.29076111E-01 -2.26866910E+00 -1.27877739E+00
  2.29076111E-01 -2.26866910E+00 -1.27877739E+00  2.29076111E-01 -3.13121787E-02
 -2.63309181E+00 -1.14993885E-01 -3.13121787E-02 -2.63309181E+00 -1.14993885E-01
 -3.13121787E-02 -2.63309181E+00 -1.14993885E-01 -3.13121787E-02 -2.63309181E+00
 -1.14993885E-01 -3.13121787E-02 -2.63309181E+00 -1.14993885E-01 -3.13121787E-02
 -2.63309181E+00 -1.14993885E-01  2.26866910E+00 -1.33660902E+00 -1.14993885E-01
  2.26866910E+00 -1.33660902E+00 -1.14993885E-01  2.26866910E+00 -1.33660902E+00
 -1.14993885E-01  2.26866910E+00 -1.33660902E+00 -1.14993885E-01  2.26866910E+00
 -1.33660902E+00 -1.14993885E-01  2.26866910E+00 -1.33660902E+00 -1.14993885E-01
  2.26866910E+00  1.27877739E+00  2.29076111E-01  2.26866910E+00  1.27877739E+00
  2.29076111E-01  2.26866910E+00  1.27877739E+00  2.29076111E-01  2.26866910E+00
  1.27877739E+00  2.29076111E-01  2.26866910E+00  1.27877739E+00  2.29076111E-01
  2.26866910E+00  1.27877739E+00  2.29076111E-01  6.45983426E-02  4.68010519E+00
 -1.94060026E-01  6.45983426E-02  4.68010519E+00 -1.94060026E-01  6.45983426E-02
  4.68010519E+00 -1.94060026E-01  6.45983426E-02  4.68010519E+00 -1.94060026E-01
  6.45983426E-02  4.68010519E+00 -1.94060026E-01 -4.03721693E+00  2.36790423E+00
 -1.94634503E-01 -4.03721693E+00  2.36790423E+00 -1.94634503E-01 -4.03721693E+00
  2.36790423E+00 -1.94634503E-01 -4.03721693E+00  2.36790423E+00 -1.94634503E-01
 -4.03721693E+00  2.36790423E+00 -1.94634503E-01 -4.04896991E+00 -2.28219418E+00
  3.94164476E-01 -4.04896991E+00 -2.28219418E+00  3.94164476E-01 -4.04896991E+00
 -2.28219418E+00  3.94164476E-01 -4.04896991E+00 -2.28219418E+00  3.94164476E-01
 -4.04896991E+00 -2.28219418E+00  3.94164476E-01 -6.45983426E-02 -4.68010519E+00
 -1.94060026E-01 -6.45983426E-02 -4.68010519E+00 -1.94060026E-01 -6.45983426E-02
 -4.68010519E+00 -1.94060026E-01 -6.45983426E-02 -4.68010519E+00 -1.94060026E-01
 -6.45983426E-02 -4.68010519E+00 -1.94060026E-01  4.03721693E+00 -2.36790423E+00
 -1.94634503E-01  4.03721693E+00 -2.36790423E+00 -1.94634503E-01  4.03721693E+00
 -2.36790423E+00 -1.94634503E-01  4.03721693E+00 -2.36790423E+00 -1.94634503E-01
  4.03721693E+00 -2.36790423E+00 -1.94634503E-01  4.04896991E+00  2.28219418E+00
  3.94164476E-01  4.04896991E+00  2.28219418E+00  3.94164476E-01  4.04896991E+00
  2.28219418E+00  3.94164476E-01  4.04896991E+00  2.28219418E+00  3.94164476E-01
  4.04896991E+00  2.28219418E+00  3.94164476E-01
Constraint Structure                       R   N=          36
  3.13121787E-02  2.63309181E+00 -1.14993885E-01 -2.26866910E+00  1.33660902E+00
 -1.14993885E-01 -2.26866910E+00 -1.27877739E+00  2.29076111E-01 -3.13121787E-02
 -2.63309181E+00 -1.14993885E-01  2.26866910E+00 -1.33660902E+00 -1.14993885E-01
  2.26866910E+00  1.27877739E+00  2.29076111E-01  6.45983426E-02  4.68010519E+00
 -1.94060026E-01 -4.03721693E+00  2.36790423E+00 -1.94634503E-01 -4.04896991E+00
 -2.28219418E+00  3.94164476E-01 -6.45983426E-02 -4.68010519E+00 -1.94060026E-01
  4.03721693E+00 -2.36790423E+00 -1.94634503E-01  4.04896991E+00  2.28219418E+00
  3.94164476E-01
Num ILSW                                   I              100
ILSW                                       I   N=         100
           0           0           0           0           2           0
           0           0           0           0           0          -1
           0           0           0           0           0           0
           0           0           0           0           0           0
           1           0           0           0           0           0
           0           0      100000           0          -1           0
           0           0           0           0           0           0
           0           0           0           1           0           0
           0           0           1           0           0           0
           0           0           4          40           0           0
           0           0           0           0           0           0
           0           0           0           0           0           0
           0           0           0           0           0           0
           0           0           0           0           0           0
           0           0           0           0           0           0
           0           0           0           0           0           0
           0           0           0           0
Num RLSW                                   I               40
RLSW                                       R   N=          40
  1.00000000E+00  1.00000000E+00  1.00000000E+00  1.00000000E+00  1.00000000E+00
  0.00000000E+00  0.00000000E+00  1.00000000E+00  0.00000000E+00  0.00000000E+00
  0.00000000E+00  0.00000000E+00  1.00000000E+00  0.00000000E+00  0.00000000E+00
  0.00000000E+00  0.00000000E+00  1.00000000E+00  0.00000000E+00  0.00000000E+00
  0.00000000E+00  0.00000000E+00  1.00000000E+00  0.00000000E+00  0.00000000E+00
  0.00000000E+00  0.00000000E+00  1.00000000E+00  0.00000000E+00  0.00000000E+00
  0.00000000E+00  0.00000000E+00  0.00000000E+00  0.00000000E+00  0.00000000E+00
  0.00000000E+00  0.00000000E+00  0.00000000E+00  1.00000000E+00  1.00000000E+00
MxBond                                     I                3
NBond                                      I   N=          12
           3           3           3           3           3           3
           1           1           1           1           1           1
IBond                                      I   N=          36
           2           6           7           1           3           8
           2           4           9           3           5          10
           4           6          11           1           5          12
           1           0           0           2           0           0
           3           0           0           4           0           0
           5           0           0           6           0           0
RBond                                      R   N=          36
  1.50000000E+00  1.50000000E+00  1.00000000E+00  1.50000000E+00  1.50000000E+00
  1.00000000E+00  1.50000000E+00  1.50000000E+00  1.00000000E+00  1.50000000E+00
  1.50000000E+00  1.00000000E+00  1.50000000E+00  1.50000000E+00  1.00000000E+00
  1.50000000E+00  1.50000000E+00  1.00000000E+00  1.00000000E+00  0.00000000E+00
  0.00000000E+00  1.00000000E+00  0.00000000E+00  0.00000000E+00  1.00000000E+00
  0.00000000E+00  0.00000000E+00  1.00000000E+00  0.00000000E+00  0.00000000E+00
  1.00000000E+00  0.00000000E+00  0.00000000E+00  1.00000000E+00  0.00000000E+00
  0.00000000E+00
Virial Ratio                               R      2.001293136132056E+00
SCF Energy                                 R     -2.307464082389315E+02
MP2 Energy                                 R     -2.315773035826498E+02
Total Energy                               R     -2.315773035826498E+02
Post-SCF wavefunction norm                 R      1.144372344518448E+00
RMS Density                                R      4.615772211947877E-09
External E-field                           R   N=          35
  0.00000000E+00  0.00000000E+00  0.00000000E+00  0.00000000E+00  0.00000000E+00
  0.00000000E+00  0.00000000E+00  0.00000000E+00  0.00000000E+00  0.00000000E+00
  0.00000000E+00  0.00000000E+00  0.00000000E+00  0.00000000E+00  0.00000000E+00
  0.00000000E+00  0.00000000E+00  0.00000000E+00  0.00000000E+00  0.00000000E+00
  0.00000000E+00  0.00000000E+00  0.00000000E+00  0.00000000E+00  0.00000000E+00
  0.00000000E+00  0.00000000E+00  0.00000000E+00  0.00000000E+00  0.00000000E+00
  0.00000000E+00  0.00000000E+00  0.00000000E+00  0.00000000E+00  0.00000000E+00
IOpCl                                      I                0
IROHF                                      I                0
Alpha Orbital Energies                     R   N=         174
 -1.12393026E+01 -1.12389016E+01 -1.12385405E+01 -1.12376850E+01 -1.12372203E+01
 -1.12368230E+01 -1.15290722E+00 -1.01565683E+00 -1.01534422E+00 -8.23779873E-01
 -8.23702931E-01 -7.10584723E-01 -6.45556505E-01 -6.17943351E-01 -5.90340261E-01
 -5.87848566E-01 -5.07339014E-01 -4.96975080E-01 -4.89637221E-01 -3.34857489E-01
 -3.34579244E-01  4.19486390E-02  4.90322873E-02  4.96416054E-02  6.62368433E-02
  7.02338762E-02  9.13548403E-02  1.02472398E-01  1.09566307E-01  1.21790058E-01
  1.45154691E-01  1.51811275E-01  1.63370263E-01  1.63585901E-01  1.81155176E-01
  1.81667902E-01  1.85919512E-01  1.87974397E-01  1.92173162E-01  1.96366172E-01
  2.10558388E-01  2.11016026E-01  2.17232961E-01  2.17679857E-01  2.26531187E-01
  2.26590636E-01  2.39330076E-01  2.41806470E-01  2.51454985E-01  2.53493138E-01
  2.75678355E-01  2.98894498E-01  3.01062015E-01  3.37069157E-01  3.53602827E-01
  4.00133912E-01  4.04442901E-01  4.11218284E-01  4.30584791E-01  4.31503082E-01
  4.73061187E-01  4.99387036E-01  5.03658425E-01  5.11456176E-01  6.05015132E-01
  6.07824620E-01  7.02382979E-01  7.23106299E-01  7.24686246E-01  7.25195767E-01
  7.35671508E-01  7.48503959E-01  7.54967435E-01  7.57793046E-01  7.64950242E-01
  8.03189635E-01  8.19969524E-01  8.20888342E-01  8.68439935E-01  8.78093515E-01
  9.04811434E-01  9.18033681E-01  9.40095231E-01  9.53287743E-01  9.60144990E-01
  9.61381639E-01  9.77031077E-01  1.01860120E+00  1.05647287E+00  1.07922263E+00
  1.09335644E+00  1.11165659E+00  1.11580857E+00  1.12563021E+00  1.21355217E+00
  1.23413537E+00  1.29900366E+00  1.33265230E+00  1.34530402E+00  1.40431519E+00
  1.41208560E+00  1.53742078E+00  1.55561623E+00  1.71504869E+00  1.77501933E+00
  1.78748654E+00  1.79894013E+00  1.82881533E+00  1.84622990E+00  1.85336296E+00
  1.90223842E+00  1.91093510E+00  1.91645364E+00  1.93615180E+00  1.99650152E+00
  2.05595682E+00  2.06082580E+00  2.10113847E+00  2.10243086E+00  2.12954950E+00
  2.16208500E+00  2.18995569E+00  2.19224430E+00  2.29356908E+00  2.31377166E+00
  2.32951366E+00  2.33792493E+00  2.33802408E+00  2.38996141E+00  2.39496400E+00
  2.62498865E+00  2.62738571E+00  2.69703434E+00  2.74309838E+00  2.75304162E+00
  2.81482043E+00  2.82367985E+00  2.84700972E+00  2.94633603E+00  2.96057402E+00
  2.98795987E+00  2.98952827E+00  3.01501199E+00  3.02951279E+00  3.04596350E+00
  3.05160262E+00  3.07780320E+00  3.18477135E+00  3.20582172E+00  3.22192806E+00
  3.28978257E+00  3.31637513E+00  3.31783615E+00  3.35411088E+00  3.48299406E+00
  3.54297385E+00  3.74574753E+00  3.77499311E+00  3.89587836E+00  3.90517741E+00
  3.92146239E+00  4.02007143E+00  4.39453123E+00  4.41935472E+00  4.47642293E+00
  4.55236822E+00  4.60004019E+00  5.18224049E+00  2.47508958E+01  2.51266315E+01
  2.51356344E+01  2.52512432E+01  2.52589477E+01  2.53287808E+01
Alpha MO coefficients                      R   N=       30276
  2.50716859E-01  2.07597079E-01 -2.50794460E-05 -2.30639586E-05  8.96597094E-06
  2.16411921E-03 -1.94141120E-05 -1.85054983E-04  2.32667175E-05 -3.88905784E-04
  2.24707428E-05  2.48086015E-05 -1.98717736E-05 -1.49222318E-04 -8.50512334E-05
 -2.97418077E-04  8.86412741E-05 -1.35260726E-04  1.14603887E-05 -1.26786596E-05
  6.23301741E-05  5.09873923E-06  2.50909094E-01  2.07756302E-01  3.26099962E-05
  9.47081936E-06  8.96022365E-06  2.16544169E-03  1.68422816E-04 -7.92110841E-05
  2.32600782E-05 -3.89139499E-04 -3.28817851E-05 -6.42632134E-06 -1.98147510E-05
 -1.44038403E-04  3.00233566E-04 -8.28423434E-05  8.89401531E-05 -1.35414418E-04
  4.95741659E-06 -1.63955580E-05 -2.43988203E-05  5.76435810E-05  1.81012231E-01
  1.49858026E-01  4.08909244E-05  2.31206504E-05 -2.22840422E-05  1.68317438E-03
  1.50120889E-04  8.46464682E-05 -3.90168624E-05 -4.07554770E-04  4.56122319E-06
  2.52230163E-06  4.37637118E-05 -8.26588662E-05  2.93530073E-05  1.60672119E-05
 -1.65990044E-04 -7.04266562E-05 -1.26065592E-05 -7.10619944E-06 -3.31659891E-05
 -5.47534459E-05  2.50716859E-01  2.07597079E-01  2.50794460E-05  2.30639586E-05
  8.96597094E-06  2.16411921E-03  1.94141120E-05  1.85054983E-04  2.32667175E-05
 -3.88905784E-04 -2.24707428E-05 -2.48086015E-05 -1.98717736E-05 -1.49222318E-04
  8.50512334E-05  2.97418077E-04  8.86412741E-05 -1.35260726E-04 -1.14603887E-05
  1.26786596E-05  6.23301741E-05  5.09873923E-06  2.50909094E-01  2.07756302E-01
 -3.26099962E-05 -9.47081936E-06  8.96022365E-06  2.16544169E-03 -1.68422816E-04
  7.92110841E-05  2.32600782E-05 -3.89139499E-04  3.28817851E-05  6.42632134E-06
 -1.98147510E-05 -1.44038403E-04 -3.00233566E-04  8.28423434E-05  8.89401531E-05
 -1.35414418E-04 -4.95741659E-06  1.63955580E-05 -2.43988203E-05  5.76435810E-05
  1.81012231E-01  1.49858026E-01 -4.08909244E-05 -2.31206504E-05 -2.22840422E-05
  1.68317438E-03 -1.50120889E-04 -8.46464682E-05 -3.90168624E-05 -4.07554770E-04
 -4.56122319E-06 -2.52230163E-06  4.37637118E-05 -8.26588662E-05 -2.93530073E-05
 -1.60672119E-05 -1.65990044E-04 -7.04266562E-05  1.26065592E-05  7.10619944E-06
 -3.31659891E-05 -5.47534459E-05  1.92375300E-04 -3.46052375E-05  2.75361875E-04
  1.56314099E-04 -3.71954164E-06 -2.86007555E-05  2.62985132E-06  1.92525639E-04
 -3.46709445E-05  2.75735393E-04  1.57362248E-04  2.64120908E-05 -1.16276727E-05
  2.64480700E-06  1.40075011E-04  2.13969352E-05  1.84169705E-04  3.25884217E-05
  3.12394464E-05  1.76175430E-05 -7.12207700E-06  1.92375300E-04 -3.46052375E-05
  2.75361875E-04  1.56314099E-04  3.71954164E-06  2.86007555E-05  2.62985132E-06
  1.92525639E-04 -3.46709445E-05  2.75735393E-04  1.57362248E-04 -2.64120908E-05
  1.16276727E-05  2.64480700E-06  1.40075011E-04  2.13969352E-05  1.84169705E-04
  3.25884217E-05 -3.12394464E-05 -1.76175430E-05 -7.12207700E-06  2.81338430E-01
  2.32978785E-01 -9.42662182E-05 -5.54113210E-06  5.09504910E-06  2.29893048E-03
 -7.29519721E-05 -1.21249114E-04  7.61084267E-06 -3.41198029E-04  7.25843417E-05
 -9.01728571E-06  1.15215788E-05 -1.35909643E-04 -2.25716667E-04 -9.32264275E-04
 -1.23042155E-05 -1.65271873E-04  1.64509843E-05 -9.45456191E-06  7.39742924E-05
  5.07882916E-05  2.81901615E-01  2.33445219E-01  5.32624131E-05  7.74905379E-05
  5.10294432E-06  2.30317332E-03  1.41584253E-04 -6.15365018E-07  7.66706687E-06
 -3.42465476E-04 -3.01706735E-05 -6.63683199E-05  1.13989944E-05 -1.35202522E-04
  9.15397649E-04 -2.90959817E-04 -1.13558699E-05 -1.65661127E-04 -3.39938573E-07
 -1.90491870E-05  1.05182375E-05  8.91316427E-05  2.56881966E-04  2.12690913E-04
 -9.11563316E-05  1.61847387E-04 -3.05400581E-08  2.26608587E-06 -7.17942626E-05
  1.27712442E-04 -5.35564965E-08 -9.55960144E-08  7.47713984E-05 -1.32102280E-04
 -2.73532991E-09 -1.55107997E-07 -2.10926499E-04  3.76768867E-04 -3.82506649E-07
 -1.18593846E-07 -2.21091940E-06  3.83682662E-06 -9.02371370E-05  5.45039171E-05
 -2.81338430E-01 -2.32978785E-01 -9.42662182E-05 -5.54113210E-06 -5.09504910E-06
 -2.29893048E-03 -7.29519721E-05 -1.21249114E-04 -7.61084267E-06  3.41198029E-04
  7.25843417E-05 -9.01728571E-06 -1.15215788E-05  1.35909643E-04 -2.25716667E-04
 -9.32264275E-04  1.23042155E-05  1.65271873E-04  1.64509843E-05 -9.45456191E-06
 -7.39742924E-05 -5.07882916E-05 -2.81901615E-01 -2.33445219E-01  5.32624131E-05
  7.74905379E-05 -5.10294432E-06 -2.30317332E-03  1.41584253E-04 -6.15365018E-07
 -7.66706687E-06  3.42465476E-04 -3.01706735E-05 -6.63683199E-05 -1.13989944E-05
  1.35202522E-04  9.15397649E-04 -2.90959817E-04  1.13558699E-05  1.65661127E-04
 -3.39938573E-07 -1.90491870E-05 -1.05182375E-05 -8.91316427E-05 -2.56881966E-04
 -2.12690913E-04 -9.11563316E-05  1.61847387E-04  3.05400581E-08 -2.26608587E-06
 -7.17942626E-05  1.27712442E-04  5.35564965E-08  9.55960144E-08  7.47713984E-05