Pyramid-25                                                              
SP        RMP2-FC                                                     6-311++G(d,p)       
Number of atoms                            I               12
Info1-9                                    I   N=           9
          21          21           0           0           0         110
           1           2           1
Charge                                     I                0
Multiplicity                               I                1
Number of electrons                        I               42
Number of alpha electrons                  I               21
Number of beta electrons                   I               21
Number of basis functions                  I              174
Number of independent functions            I              174
Number of point charges in /Mol/           I                0
Number of translation vectors              I                0
Atomic numbers                             I   N=          12
           6           6           6           6           6           6
           1           1           1           1           1           1
Nuclear charges                            R   N=          12
  6.00000000E+00  6.00000000E+00  6.00000000E+00  6.00000000E+00  6.00000000E+00
  6.00000000E+00  1.00000000E+00  1.00000000E+00  1.00000000E+00  1.00000000E+00
  1.00000000E+00  1.00000000E+00
Current cartesian coordinates              R   N=          36
  1.23887836E-01 -1.32188705E+00  2.28947124E+00  1.23887836E-01  1.32188705E+00
  2.28947124E+00  1.23947362E-01  2.64387898E+00 -1.63578197E-26  1.23887836E-01
  1.32188705E+00 -2.28947124E+00  1.23887836E-01 -1.32188705E+00 -2.28947124E+00
  1.23951142E-01 -2.64387898E+00  1.62568455E-26 -7.43475008E-01 -2.25171797E+00
  3.90045332E+00 -7.43476337E-01  2.25171673E+00  3.90045332E+00 -7.43402358E-01
  4.50391501E+00 -2.76669297E-26 -7.43476337E-01  2.25171673E+00 -3.90045332E+00
 -7.43475008E-01 -2.25171797E+00 -3.90045332E+00 -7.43394029E-01 -4.50391247E+00
  2.78688781E-26
Force Field                                I                0
Int Atom Types                             I   N=          12
           0           0           0           0           0           0
           0           0           0           0           0           0
MM charges                                 R   N=          12
  0.00000000E+00  0.00000000E+00  0.00000000E+00  0.00000000E+00  0.00000000E+00
  0.00000000E+00  0.00000000E+00  0.00000000E+00  0.00000000E+00  0.00000000E+00
  0.00000000E+00  0.00000000E+00
Integer atomic weights                     I   N=          12
          12          12          12          12          12          12
           1           1           1           1           1           1
Real atomic weights                        R   N=          12
  1.20000000E+01  1.20000000E+01  1.20000000E+01  1.20000000E+01  1.20000000E+01
  1.20000000E+01  1.00782504E+00  1.00782504E+00  1.00782504E+00  1.00782504E+00
  1.00782504E+00  1.00782504E+00
Atom fragment info                         I   N=          12
           0           0           0           0           0           0
           0           0           0           0           0           0
Atom residue num                           I   N=          12
           0           0           0           0           0           0
           0           0           0           0           0           0
Nuclear spins                              I   N=          12
           0           0           0           0           0           0
           1           1           1           1           1           1
Nuclear ZEff                               R   N=          12
 -3.60000000E+00 -3.60000000E+00 -3.60000000E+00 -3.60000000E+00 -3.60000000E+00
 -3.60000000E+00 -1.00000000E+00 -1.00000000E+00 -1.00000000E+00 -1.00000000E+00
 -1.00000000E+00 -1.00000000E+00
Nuclear QMom                               R   N=          12
  0.00000000E+00  0.00000000E+00  0.00000000E+00  0.00000000E+00  0.00000000E+00
  0.00000000E+00  0.00000000E+00  0.00000000E+00  0.00000000E+00  0.00000000E+00
  0.00000000E+00  0.00000000E+00
Nuclear GFac                               R   N=          12
  0.00000000E+00  0.00000000E+00  0.00000000E+00  0.00000000E+00  0.00000000E+00
  0.00000000E+00  2.79284600E+00  2.79284600E+00  2.79284600E+00  2.79284600E+00
  2.79284600E+00  2.79284600E+00
MicOpt                                     I   N=          12
          -1          -1          -1          -1          -1          -1
          -1          -1          -1          -1          -1          -1
Number of contracted shells                I               66
Number of primitive shells                 I              120
Pure/Cartesian d shells                    I                0
Pure/Cartesian f shells                    I                0
Highest angular momentum                   I                2
Largest degree of contraction              I                6
Shell types                                I   N=          66
           0          -1          -1          -1          -1          -2
           0          -1          -1          -1          -1          -2
           0          -1          -1          -1          -1          -2
           0          -1          -1          -1          -1          -2
           0          -1          -1          -1          -1          -2
           0          -1          -1          -1          -1          -2
           0           0           0           0           1           0
           0           0           0           1           0           0
           0           0           1           0           0           0
           0           1           0           0           0           0
           1           0           0           0           0           1
Number of primitives per shell             I   N=          66
           6           3           1           1           1           1
           6           3           1           1           1           1
           6           3           1           1           1           1
           6           3           1           1           1           1
           6           3           1           1           1           1
           6           3           1           1           1           1
           3           1           1           1           1           3
           1           1           1           1           3           1
           1           1           1           3           1           1
           1           1           3           1           1           1
           1           3           1           1           1           1
Shell to atom map                          I   N=          66
           1           1           1           1           1           1
           2           2           2           2           2           2
           3           3           3           3           3           3
           4           4           4           4           4           4
           5           5           5           5           5           5
           6           6           6           6           6           6
           7           7           7           7           7           8
           8           8           8           8           9           9
           9           9           9          10          10          10
          10          10          11          11          11          11
          11          12          12          12          12          12
Primitive exponents                        R   N=         120
  4.56324000E+03  6.82024000E+02  1.54973000E+02  4.44553000E+01  1.30290000E+01
  1.82773000E+00  2.09642000E+01  4.80331000E+00  1.45933000E+00  4.83456000E-01
  1.45585000E-01  4.38000000E-02  6.26000000E-01  4.56324000E+03  6.82024000E+02
  1.54973000E+02  4.44553000E+01  1.30290000E+01  1.82773000E+00  2.09642000E+01
  4.80331000E+00  1.45933000E+00  4.83456000E-01  1.45585000E-01  4.38000000E-02
  6.26000000E-01  4.56324000E+03  6.82024000E+02  1.54973000E+02  4.44553000E+01
  1.30290000E+01  1.82773000E+00  2.09642000E+01  4.80331000E+00  1.45933000E+00
  4.83456000E-01  1.45585000E-01  4.38000000E-02  6.26000000E-01  4.56324000E+03
  6.82024000E+02  1.54973000E+02  4.44553000E+01  1.30290000E+01  1.82773000E+00
  2.09642000E+01  4.80331000E+00  1.45933000E+00  4.83456000E-01  1.45585000E-01
  4.38000000E-02  6.26000000E-01  4.56324000E+03  6.82024000E+02  1.54973000E+02
  4.44553000E+01  1.30290000E+01  1.82773000E+00  2.09642000E+01  4.80331000E+00
  1.45933000E+00  4.83456000E-01  1.45585000E-01  4.38000000E-02  6.26000000E-01
  4.56324000E+03  6.82024000E+02  1.54973000E+02  4.44553000E+01  1.30290000E+01
  1.82773000E+00  2.09642000E+01  4.80331000E+00  1.45933000E+00  4.83456000E-01
  1.45585000E-01  4.38000000E-02  6.26000000E-01  3.38650000E+01  5.09479000E+00
  1.15879000E+00  3.25840000E-01  1.02741000E-01  3.60000000E-02  7.50000000E-01
  3.38650000E+01  5.09479000E+00  1.15879000E+00  3.25840000E-01  1.02741000E-01
  3.60000000E-02  7.50000000E-01  3.38650000E+01  5.09479000E+00  1.15879000E+00
  3.25840000E-01  1.02741000E-01  3.60000000E-02  7.50000000E-01  3.38650000E+01
  5.09479000E+00  1.15879000E+00  3.25840000E-01  1.02741000E-01  3.60000000E-02
  7.50000000E-01  3.38650000E+01  5.09479000E+00  1.15879000E+00  3.25840000E-01
  1.02741000E-01  3.60000000E-02  7.50000000E-01  3.38650000E+01  5.09479000E+00
  1.15879000E+00  3.25840000E-01  1.02741000E-01  3.60000000E-02  7.50000000E-01
Contraction coefficients                   R   N=         120
  1.96665025E-03  1.52306019E-02  7.61269097E-02  2.60801033E-01  6.16462078E-01
  2.21006028E-01  1.14660081E-01  9.19999648E-01 -3.03068213E-03  1.00000000E+00
  1.00000000E+00  1.00000000E+00  1.00000000E+00  1.96665025E-03  1.52306019E-02
  7.61269097E-02  2.60801033E-01  6.16462078E-01  2.21006028E-01  1.14660081E-01
  9.19999648E-01 -3.03068213E-03  1.00000000E+00  1.00000000E+00  1.00000000E+00
  1.00000000E+00  1.96665025E-03  1.52306019E-02  7.61269097E-02  2.60801033E-01
  6.16462078E-01  2.21006028E-01  1.14660081E-01  9.19999648E-01 -3.03068213E-03
  1.00000000E+00  1.00000000E+00  1.00000000E+00  1.00000000E+00  1.96665025E-03
  1.52306019E-02  7.61269097E-02  2.60801033E-01  6.16462078E-01  2.21006028E-01
  1.14660081E-01  9.19999648E-01 -3.03068213E-03  1.00000000E+00  1.00000000E+00
  1.00000000E+00  1.00000000E+00  1.96665025E-03  1.52306019E-02  7.61269097E-02
  2.60801033E-01  6.16462078E-01  2.21006028E-01  1.14660081E-01  9.19999648E-01
 -3.03068213E-03  1.00000000E+00  1.00000000E+00  1.00000000E+00  1.00000000E+00
  1.96665025E-03  1.52306019E-02  7.61269097E-02  2.60801033E-01  6.16462078E-01
  2.21006028E-01  1.14660081E-01  9.19999648E-01 -3.03068213E-03  1.00000000E+00
  1.00000000E+00  1.00000000E+00  1.00000000E+00  2.54938145E-02  1.90373109E-01
  8.52161486E-01  1.00000000E+00  1.00000000E+00  1.00000000E+00  1.00000000E+00
  2.54938145E-02  1.90373109E-01  8.52161486E-01  1.00000000E+00  1.00000000E+00
  1.00000000E+00  1.00000000E+00  2.54938145E-02  1.90373109E-01  8.52161486E-01
  1.00000000E+00  1.00000000E+00  1.00000000E+00  1.00000000E+00  2.54938145E-02
  1.90373109E-01  8.52161486E-01  1.00000000E+00  1.00000000E+00  1.00000000E+00
  1.00000000E+00  2.54938145E-02  1.90373109E-01  8.52161486E-01  1.00000000E+00
  1.00000000E+00  1.00000000E+00  1.00000000E+00  2.54938145E-02  1.90373109E-01
  8.52161486E-01  1.00000000E+00  1.00000000E+00  1.00000000E+00  1.00000000E+00
P(S=P) Contraction coefficients            R   N=         120
  0.00000000E+00  0.00000000E+00  0.00000000E+00  0.00000000E+00  0.00000000E+00
  0.00000000E+00  4.02486927E-02  2.37593957E-01  8.15853851E-01  1.00000000E+00
  1.00000000E+00  1.00000000E+00  0.00000000E+00  0.00000000E+00  0.00000000E+00
  0.00000000E+00  0.00000000E+00  0.00000000E+00  0.00000000E+00  4.02486927E-02
  2.37593957E-01  8.15853851E-01  1.00000000E+00  1.00000000E+00  1.00000000E+00
  0.00000000E+00  0.00000000E+00  0.00000000E+00  0.00000000E+00  0.00000000E+00
  0.00000000E+00  0.00000000E+00  4.02486927E-02  2.37593957E-01  8.15853851E-01
  1.00000000E+00  1.00000000E+00  1.00000000E+00  0.00000000E+00  0.00000000E+00
  0.00000000E+00  0.00000000E+00  0.00000000E+00  0.00000000E+00  0.00000000E+00
  4.02486927E-02  2.37593957E-01  8.15853851E-01  1.00000000E+00  1.00000000E+00
  1.00000000E+00  0.00000000E+00  0.00000000E+00  0.00000000E+00  0.00000000E+00
  0.00000000E+00  0.00000000E+00  0.00000000E+00  4.02486927E-02  2.37593957E-01
  8.15853851E-01  1.00000000E+00  1.00000000E+00  1.00000000E+00  0.00000000E+00
  0.00000000E+00  0.00000000E+00  0.00000000E+00  0.00000000E+00  0.00000000E+00
  0.00000000E+00  4.02486927E-02  2.37593957E-01  8.15853851E-01  1.00000000E+00
  1.00000000E+00  1.00000000E+00  0.00000000E+00  0.00000000E+00  0.00000000E+00
  0.00000000E+00  0.00000000E+00  0.00000000E+00  0.00000000E+00  0.00000000E+00
  0.00000000E+00  0.00000000E+00  0.00000000E+00  0.00000000E+00  0.00000000E+00
  0.00000000E+00  0.00000000E+00  0.00000000E+00  0.00000000E+00  0.00000000E+00
  0.00000000E+00  0.00000000E+00  0.00000000E+00  0.00000000E+00  0.00000000E+00
  0.00000000E+00  0.00000000E+00  0.00000000E+00  0.00000000E+00  0.00000000E+00
  0.00000000E+00  0.00000000E+00  0.00000000E+00  0.00000000E+00  0.00000000E+00
  0.00000000E+00  0.00000000E+00  0.00000000E+00  0.00000000E+00  0.00000000E+00
  0.00000000E+00  0.00000000E+00  0.00000000E+00  0.00000000E+00  0.00000000E+00
Coordinates of each shell                  R   N=         198
  1.23887836E-01 -1.32188705E+00  2.28947124E+00  1.23887836E-01 -1.32188705E+00
  2.28947124E+00  1.23887836E-01 -1.32188705E+00  2.28947124E+00  1.23887836E-01
 -1.32188705E+00  2.28947124E+00  1.23887836E-01 -1.32188705E+00  2.28947124E+00
  1.23887836E-01 -1.32188705E+00  2.28947124E+00  1.23887836E-01  1.32188705E+00
  2.28947124E+00  1.23887836E-01  1.32188705E+00  2.28947124E+00  1.23887836E-01
  1.32188705E+00  2.28947124E+00  1.23887836E-01  1.32188705E+00  2.28947124E+00
  1.23887836E-01  1.32188705E+00  2.28947124E+00  1.23887836E-01  1.32188705E+00
  2.28947124E+00  1.23947362E-01  2.64387898E+00 -8.14234744E-27  1.23947362E-01
  2.64387898E+00 -8.14234744E-27  1.23947362E-01  2.64387898E+00 -8.14234744E-27
  1.23947362E-01  2.64387898E+00 -8.14234744E-27  1.23947362E-01  2.64387898E+00
 -8.14234744E-27  1.23947362E-01  2.64387898E+00 -8.14234744E-27  1.23887836E-01
  1.32188705E+00 -2.28947124E+00  1.23887836E-01  1.32188705E+00 -2.28947124E+00
  1.23887836E-01  1.32188705E+00 -2.28947124E+00  1.23887836E-01  1.32188705E+00
 -2.28947124E+00  1.23887836E-01  1.32188705E+00 -2.28947124E+00  1.23887836E-01
  1.32188705E+00 -2.28947124E+00  1.23887836E-01 -1.32188705E+00 -2.28947124E+00
  1.23887836E-01 -1.32188705E+00 -2.28947124E+00  1.23887836E-01 -1.32188705E+00
 -2.28947124E+00  1.23887836E-01 -1.32188705E+00 -2.28947124E+00  1.23887836E-01
 -1.32188705E+00 -2.28947124E+00  1.23887836E-01 -1.32188705E+00 -2.28947124E+00
  1.23951142E-01 -2.64387898E+00  8.14242937E-27  1.23951142E-01 -2.64387898E+00
  8.14242937E-27  1.23951142E-01 -2.64387898E+00  8.14242937E-27  1.23951142E-01
 -2.64387898E+00  8.14242937E-27  1.23951142E-01 -2.64387898E+00  8.14242937E-27
  1.23951142E-01 -2.64387898E+00  8.14242937E-27 -7.43475008E-01 -2.25171797E+00
  3.90045332E+00 -7.43475008E-01 -2.25171797E+00  3.90045332E+00 -7.43475008E-01
 -2.25171797E+00  3.90045332E+00 -7.43475008E-01 -2.25171797E+00  3.90045332E+00
 -7.43475008E-01 -2.25171797E+00  3.90045332E+00 -7.43476337E-01  2.25171673E+00
  3.90045332E+00 -7.43476337E-01  2.25171673E+00  3.90045332E+00 -7.43476337E-01
  2.25171673E+00  3.90045332E+00 -7.43476337E-01  2.25171673E+00  3.90045332E+00
 -7.43476337E-01  2.25171673E+00  3.90045332E+00 -7.43402358E-01  4.50391501E+00
 -1.38710112E-26 -7.43402358E-01  4.50391501E+00 -1.38710112E-26 -7.43402358E-01
  4.50391501E+00 -1.38710112E-26 -7.43402358E-01  4.50391501E+00 -1.38710112E-26
 -7.43402358E-01  4.50391501E+00 -1.38710112E-26 -7.43476337E-01  2.25171673E+00
 -3.90045332E+00 -7.43476337E-01  2.25171673E+00 -3.90045332E+00 -7.43476337E-01
  2.25171673E+00 -3.90045332E+00 -7.43476337E-01  2.25171673E+00 -3.90045332E+00
 -7.43476337E-01  2.25171673E+00 -3.90045332E+00 -7.43475008E-01 -2.25171797E+00
 -3.90045332E+00 -7.43475008E-01 -2.25171797E+00 -3.90045332E+00 -7.43475008E-01
 -2.25171797E+00 -3.90045332E+00 -7.43475008E-01 -2.25171797E+00 -3.90045332E+00
 -7.43475008E-01 -2.25171797E+00 -3.90045332E+00 -7.43394029E-01 -4.50391247E+00
  1.38705120E-26 -7.43394029E-01 -4.50391247E+00  1.38705120E-26 -7.43394029E-01
 -4.50391247E+00  1.38705120E-26 -7.43394029E-01 -4.50391247E+00  1.38705120E-26
 -7.43394029E-01 -4.50391247E+00  1.38705120E-26
Constraint Structure                       R   N=          36
  1.23887836E-01 -1.32188705E+00  2.28947124E+00  1.23887836E-01  1.32188705E+00
  2.28947124E+00  1.23947362E-01  2.64387898E+00 -8.14234744E-27  1.23887836E-01
  1.32188705E+00 -2.28947124E+00  1.23887836E-01 -1.32188705E+00 -2.28947124E+00
  1.23951142E-01 -2.64387898E+00  8.14242937E-27 -7.43475008E-01 -2.25171797E+00
  3.90045332E+00 -7.43476337E-01  2.25171673E+00  3.90045332E+00 -7.43402358E-01
  4.50391501E+00 -1.38710112E-26 -7.43476337E-01  2.25171673E+00 -3.90045332E+00
 -7.43475008E-01 -2.25171797E+00 -3.90045332E+00 -7.43394029E-01 -4.50391247E+00
  1.38705120E-26
Num ILSW                                   I              100
ILSW                                       I   N=         100
           0           0           0           0           2           0
           0           0           0           0           0          -1
           0           0           0           0           0           0
           0           0           0           0           0           0
           1           0           0           0           0           0
           0           0      100000           0          -1           0
           0           0           0           0           0           0
           0           0           0           1           0           0
           0           0           1           0           0           0
           0           0           4          40           0           0
           0           0           0           0           0           0
           0           0           0           0           0           0
           0           0           0           0           0           0
           0           0           0           0           0           0
           0           0           0           0           0           0
           0           0           0           0           0           0
           0           0           0           0
Num RLSW                                   I               40
RLSW                                       R   N=          40
  1.00000000E+00  1.00000000E+00  1.00000000E+00  1.00000000E+00  1.00000000E+00
  0.00000000E+00  0.00000000E+00  1.00000000E+00  0.00000000E+00  0.00000000E+00
  0.00000000E+00  0.00000000E+00  1.00000000E+00  0.00000000E+00  0.00000000E+00
  0.00000000E+00  0.00000000E+00  1.00000000E+00  0.00000000E+00  0.00000000E+00
  0.00000000E+00  0.00000000E+00  1.00000000E+00  0.00000000E+00  0.00000000E+00
  0.00000000E+00  0.00000000E+00  1.00000000E+00  0.00000000E+00  0.00000000E+00
  0.00000000E+00  0.00000000E+00  0.00000000E+00  0.00000000E+00  0.00000000E+00
  0.00000000E+00  0.00000000E+00  0.00000000E+00  1.00000000E+00  1.00000000E+00
MxBond                                     I                3
NBond                                      I   N=          12
           3           3           3           3           3           3
           1           1           1           1           1           1
IBond                                      I   N=          36
           2           6           7           1           3           8
           2           4           9           3           5          10
           4           6          11           1           5          12
           1           0           0           2           0           0
           3           0           0           4           0           0
           5           0           0           6           0           0
RBond                                      R   N=          36
  1.50000000E+00  1.50000000E+00  1.00000000E+00  1.50000000E+00  1.50000000E+00
  1.00000000E+00  1.50000000E+00  1.50000000E+00  1.00000000E+00  1.50000000E+00
  1.50000000E+00  1.00000000E+00  1.50000000E+00  1.50000000E+00  1.00000000E+00
  1.50000000E+00  1.50000000E+00  1.00000000E+00  1.00000000E+00  0.00000000E+00
  0.00000000E+00  1.00000000E+00  0.00000000E+00  0.00000000E+00  1.00000000E+00
  0.00000000E+00  0.00000000E+00  1.00000000E+00  0.00000000E+00  0.00000000E+00
  1.00000000E+00  0.00000000E+00  0.00000000E+00  1.00000000E+00  0.00000000E+00
  0.00000000E+00
Virial Ratio                               R      2.001323478370159E+00
SCF Energy                                 R     -2.307087032619468E+02
MP2 Energy                                 R     -2.315454871802326E+02
Total Energy                               R     -2.315454871802326E+02
Post-SCF wavefunction norm                 R      1.146931284517328E+00
RMS Density                                R      5.373001876268892E-09
External E-field                           R   N=          35
  0.00000000E+00  0.00000000E+00  0.00000000E+00  0.00000000E+00  0.00000000E+00
  0.00000000E+00  0.00000000E+00  0.00000000E+00  0.00000000E+00  0.00000000E+00
  0.00000000E+00  0.00000000E+00  0.00000000E+00  0.00000000E+00  0.00000000E+00
  0.00000000E+00  0.00000000E+00  0.00000000E+00  0.00000000E+00  0.00000000E+00
  0.00000000E+00  0.00000000E+00  0.00000000E+00  0.00000000E+00  0.00000000E+00
  0.00000000E+00  0.00000000E+00  0.00000000E+00  0.00000000E+00  0.00000000E+00
  0.00000000E+00  0.00000000E+00  0.00000000E+00  0.00000000E+00  0.00000000E+00
IOpCl                                      I                0
IROHF                                      I                0
Alpha Orbital Energies                     R   N=         174
 -1.12436886E+01 -1.12431331E+01 -1.12431313E+01 -1.12419274E+01 -1.12419257E+01
 -1.12413381E+01 -1.15493347E+00 -1.02019754E+00 -1.02017999E+00 -8.26244810E-01
 -8.26224953E-01 -7.10350539E-01 -6.36772826E-01 -6.21418745E-01 -5.89505308E-01
 -5.89474269E-01 -5.02830813E-01 -4.92146268E-01 -4.92143018E-01 -3.36858283E-01
 -3.36840106E-01  4.21545017E-02  5.36061197E-02  5.36063195E-02  7.14519955E-02
  7.14540374E-02  9.34738369E-02  9.76728037E-02  9.76835222E-02  1.21403833E-01
  1.43544671E-01  1.43545914E-01  1.63758757E-01  1.64752037E-01  1.82864962E-01
  1.82867687E-01  1.91394896E-01  1.94070718E-01  2.01289461E-01  2.01291011E-01
  2.09369571E-01  2.09373389E-01  2.19954614E-01  2.19959157E-01  2.26890528E-01
  2.26892526E-01  2.30364966E-01  2.52739027E-01  2.53823754E-01  2.53824499E-01
  2.87115952E-01  2.87117376E-01  2.97341555E-01  3.05192722E-01  3.50171069E-01
  3.58471736E-01  3.58476975E-01  4.30514100E-01  4.30517147E-01  4.72622827E-01
  4.72645510E-01  4.80142304E-01  5.04978236E-01  5.04986083E-01  5.94477323E-01
  6.04783068E-01  7.13146089E-01  7.16535025E-01  7.30814339E-01  7.30823180E-01
  7.48569385E-01  7.48573598E-01  7.59341221E-01  7.73119758E-01  7.73127662E-01
  7.94086959E-01  7.96220454E-01  7.96231030E-01  8.50925526E-01  8.50928174E-01
  8.74343138E-01  8.82258306E-01  8.82280626E-01  9.08755799E-01  9.08757073E-01
  9.10884237E-01  9.22268075E-01  9.22304800E-01  1.04615615E+00  1.07407777E+00
  1.07408398E+00  1.10777387E+00  1.10898957E+00  1.10899319E+00  1.12636654E+00
  1.19814375E+00  1.21389973E+00  1.24240622E+00  1.48286098E+00  1.48290361E+00
  1.55562142E+00  1.55566174E+00  1.57489105E+00  1.73526488E+00  1.74941507E+00
  1.74947127E+00  1.76838751E+00  1.82173374E+00  1.82173564E+00  1.84984766E+00
  1.84990823E+00  1.98995028E+00  1.99203216E+00  1.99210431E+00  2.00192106E+00
  2.01920013E+00  2.02309479E+00  2.02312264E+00  2.07098860E+00  2.07098963E+00
  2.12938064E+00  2.20092432E+00  2.20095966E+00  2.29251200E+00  2.29253497E+00
  2.30406057E+00  2.37183301E+00  2.37188125E+00  2.42406175E+00  2.42410741E+00
  2.58395636E+00  2.64859920E+00  2.64867523E+00  2.73343231E+00  2.74822204E+00
  2.78785662E+00  2.78789129E+00  2.85206797E+00  2.85210093E+00  2.85521280E+00
  2.96699042E+00  2.96700973E+00  2.96798979E+00  2.97152776E+00  2.97155000E+00
  3.07090317E+00  3.13802374E+00  3.22611537E+00  3.23055637E+00  3.23057147E+00
  3.23171703E+00  3.23181207E+00  3.33688972E+00  3.33690626E+00  3.52271624E+00
  3.54062675E+00  3.77160111E+00  3.77165351E+00  3.83988327E+00  3.89197796E+00
  3.89204410E+00  3.90748332E+00  4.39747714E+00  4.39754156E+00  4.48027873E+00
  4.48032642E+00  4.60519664E+00  5.21056270E+00  2.47120057E+01  2.51133205E+01
  2.51133458E+01  2.52301290E+01  2.52301695E+01  2.53034472E+01
Alpha MO coefficients                      R   N=       30276
  2.29789258E-01  1.90261557E-01  1.08337565E-04  4.62060320E-08 -2.97659963E-07
  1.99131481E-03 -7.91215036E-05  1.06650392E-04 -1.84855921E-04 -3.19110800E-04
  3.80036270E-05 -1.88389160E-05  3.25718197E-05  2.13145807E-04 -2.16021950E-05
  1.31145026E-05 -2.26657056E-05  2.77334736E-05 -1.17843540E-05  5.54942044E-05
 -1.12025475E-04  6.78626012E-06  2.29808369E-01  1.90277378E-01  1.08347066E-04
 -1.99668606E-08 -3.22487776E-07  1.99149588E-03 -7.91302832E-05 -1.06638858E-04
 -1.84879732E-04 -3.19122984E-04  3.79993802E-05  1.88125376E-05  3.26020703E-05
  2.12680479E-04 -2.16626639E-05 -1.30012143E-05 -2.26039677E-05  2.77439095E-05
 -1.17887100E-05 -5.55114604E-05 -1.12025026E-04 -6.77819434E-06  2.30189545E-01
  1.90593120E-01  1.08535111E-04 -1.28853293E-07  0.00000000E+00  1.99420974E-03
 -7.93696369E-05 -2.13555841E-04  0.00000000E+00 -3.19665951E-04  3.81955886E-05
  3.78023980E-05  0.00000000E+00  2.14235726E-04 -2.15446773E-05 -2.68331933E-05
  0.00000000E+00  1.11114039E-04  0.00000000E+00  0.00000000E+00 -6.42256143E-05
 -1.37025370E-05  2.29808369E-01  1.90277378E-01  1.08347066E-04 -1.99668606E-08
  3.22487776E-07  1.99149588E-03 -7.91302832E-05 -1.06638858E-04  1.84879732E-04
 -3.19122984E-04  3.79993802E-05  1.88125376E-05 -3.26020703E-05  2.12680479E-04
 -2.16626639E-05 -1.30012143E-05  2.26039677E-05  2.77439095E-05  1.17887100E-05
  5.55114604E-05 -1.12025026E-04 -6.77819434E-06  2.29789258E-01  1.90261557E-01
  1.08337565E-04  4.62060320E-08  2.97659963E-07  1.99131481E-03 -7.91215036E-05
  1.06650392E-04  1.84855921E-04 -3.19110800E-04  3.80036270E-05 -1.88389160E-05
 -3.25718197E-05  2.13145807E-04 -2.16021950E-05  1.31145026E-05  2.26657056E-05
  2.77334736E-05  1.17843540E-05 -5.54942044E-05 -1.12025475E-04  6.78626012E-06
  2.30103368E-01  1.90521752E-01  1.08491815E-04  1.51235905E-07  0.00000000E+00
  1.99353974E-03 -7.93256108E-05  2.13498259E-04  0.00000000E+00 -3.19605009E-04
  3.81682120E-05 -3.77874661E-05  0.00000000E+00  2.13800989E-04 -2.16176272E-05
  2.65757646E-05  0.00000000E+00  1.11068747E-04  0.00000000E+00  0.00000000E+00
 -6.41929226E-05  1.36896227E-05  1.70481609E-04  1.57643420E-05  5.76459248E-05
 -1.29909672E-04  1.87607527E-05  1.16639323E-05 -2.02552075E-05  1.70496112E-04
  1.57582717E-05  5.76384813E-05 -1.29972018E-04  1.87622765E-05 -1.16576517E-05
 -2.02598274E-05  1.70768205E-04  1.56738645E-05  5.79585388E-05 -1.29733892E-04
  1.87511005E-05 -2.33724523E-05  0.00000000E+00  1.70496112E-04  1.57582717E-05
  5.76384813E-05 -1.29972018E-04  1.87622765E-05 -1.16576517E-05  2.02598274E-05
  1.70481609E-04  1.57643420E-05  5.76459248E-05 -1.29909672E-04  1.87607527E-05
  1.16639323E-05  2.02552075E-05  1.70705592E-04  1.56854112E-05  5.78900593E-05
 -1.29832452E-04  1.87471139E-05  2.33665460E-05  0.00000000E+00 -1.62483537E-01
 -1.34552217E-01 -8.16426262E-05  1.50181539E-04  6.34584523E-05 -1.31928797E-03
  8.35909446E-05  3.61749537E-05  1.44753599E-04  1.13482330E-04 -3.56702341E-05
 -1.33720086E-04 -1.26342528E-04  6.58444343E-05 -2.13343514E-05  1.70186329E-04
  3.67617945E-04 -8.01092451E-05  3.99439362E-05 -8.13568310E-05  5.36802765E-05
  2.73843657E-05  1.62400497E-01  1.34483450E-01  8.16017046E-05  1.50202230E-04
 -6.34913177E-05  1.31862308E-03 -8.35559783E-05  3.62193149E-05 -1.44708090E-04
 -1.13369581E-04  3.56482317E-05 -1.33730349E-04  1.26323307E-04 -6.61359476E-05
  2.13190016E-05  1.70236627E-04 -3.67512559E-04  8.01010841E-05 -3.99367862E-05
 -8.13428150E-05 -5.36278953E-05  2.73942077E-05  3.25354405E-01  2.69425356E-01
  1.63463963E-04  4.06055486E-05  0.00000000E+00  2.64095715E-03 -1.67448119E-04
 -2.14801059E-04  0.00000000E+00 -2.27317290E-04  7.18474945E-05  8.50342446E-05
  0.00000000E+00 -1.43797575E-04  4.31444805E-05 -4.64797650E-04  0.00000000E+00
  1.71788800E-04  0.00000000E+00  0.00000000E+00 -1.01112394E-04 -4.19416195E-05
  1.62400497E-01  1.34483450E-01  8.16017046E-05  1.50202230E-04  6.34913177E-05
  1.31862308E-03 -8.35559783E-05  3.62193149E-05  1.44708090E-04 -1.13369581E-04
  3.56482317E-05 -1.33730349E-04 -1.26323307E-04 -6.61359476E-05  2.13190016E-05
  1.70236627E-04  3.67512559E-04  8.01010841E-05  3.99367862E-05  8.13428150E-05
 -5.36278953E-05  2.73942077E-05 -1.62483537E-01 -1.34552217E-01 -8.16426262E-05
  1.50181539E-04 -6.34584523E-05 -1.31928797E-03  8.35909446E-05  3.61749537E-05
 -1.44753599E-04  1.13482330E-04 -3.56702341E-05 -1.33720086E-04  1.26342528E-04
  6.58444343E-05 -2.13343514E-05  1.70186329E-04 -3.67617945E-04 -8.01092451E-05
 -3.99439362E-05  8.13568310E-05  5.36802765E-05  2.73843657E-05 -3.25337335E-01
 -2.69411200E-01 -1.63452808E-04  4.05679302E-05  0.00000000E+00 -2.64092419E-03
  1.67431008E-04 -2.14812350E-04  0.00000000E+00  2.27300309E-04 -7.18279876E-05