O                                                                       
SP        RMP2-FC                                                     6-311++G(d,p)       
Number of atoms                            I                9
Info1-9                                    I   N=           9
          22          18           0           0           0         110
           1           2           1
Charge                                     I                0
Multiplicity                               I                1
Number of electrons                        I               36
Number of alpha electrons                  I               18
Number of beta electrons                   I               18
Number of basis functions                  I              138
Number of independent functions            I              138
Number of point charges in /Mol/           I                0
Number of translation vectors              I                0
Atomic numbers                             I   N=           9
           6           6           6           8           6           1
           1           1           1
Nuclear charges                            R   N=           9
  6.00000000E+00  6.00000000E+00  6.00000000E+00  8.00000000E+00  6.00000000E+00
  1.00000000E+00  1.00000000E+00  1.00000000E+00  1.00000000E+00
Current cartesian coordinates              R   N=          27
  1.38308764E-16  1.35621676E+00 -1.80989654E+00 -5.26045842E-16 -1.35621676E+00
 -1.80989654E+00 -3.40021804E-16 -2.06952224E+00  6.55589459E-01  1.34055757E-16
  1.34055757E-16  2.18929686E+00  6.73751709E-16  2.06952224E+00  6.55589459E-01
  2.66892265E-16  2.59535743E+00 -3.42739062E+00 -1.00446620E-15 -2.59535743E+00
 -3.42739062E+00 -6.13818175E-16 -3.87348693E+00  1.59604946E+00  1.28364317E-15
  3.87348693E+00  1.59604946E+00
Force Field                                I                0
Int Atom Types                             I   N=           9
           0           0           0           0           0           0
           0           0           0
MM charges                                 R   N=           9
  0.00000000E+00  0.00000000E+00  0.00000000E+00  0.00000000E+00  0.00000000E+00
  0.00000000E+00  0.00000000E+00  0.00000000E+00  0.00000000E+00
Integer atomic weights                     I   N=           9
          12          12          12          16          12           1
           1           1           1
Real atomic weights                        R   N=           9
  1.20000000E+01  1.20000000E+01  1.20000000E+01  1.59949146E+01  1.20000000E+01
  1.00782504E+00  1.00782504E+00  1.00782504E+00  1.00782504E+00
Atom fragment info                         I   N=           9
           0           0           0           0           0           0
           0           0           0
Atom residue num                           I   N=           9
           0           0           0           0           0           0
           0           0           0
Nuclear spins                              I   N=           9
           0           0           0           0           0           1
           1           1           1
Nuclear ZEff                               R   N=           9
 -3.60000000E+00 -3.60000000E+00 -3.60000000E+00 -5.60000000E+00 -3.60000000E+00
 -1.00000000E+00 -1.00000000E+00 -1.00000000E+00 -1.00000000E+00
Nuclear QMom                               R   N=           9
  0.00000000E+00  0.00000000E+00  0.00000000E+00  0.00000000E+00  0.00000000E+00
  0.00000000E+00  0.00000000E+00  0.00000000E+00  0.00000000E+00
Nuclear GFac                               R   N=           9
  0.00000000E+00  0.00000000E+00  0.00000000E+00  0.00000000E+00  0.00000000E+00
  2.79284600E+00  2.79284600E+00  2.79284600E+00  2.79284600E+00
MicOpt                                     I   N=           9
          -1          -1          -1          -1          -1          -1
          -1          -1          -1
Number of contracted shells                I               50
Number of primitive shells                 I               93
Pure/Cartesian d shells                    I                0
Pure/Cartesian f shells                    I                0
Highest angular momentum                   I                2
Largest degree of contraction              I                6
Shell types                                I   N=          50
           0          -1          -1          -1          -1          -2
           0          -1          -1          -1          -1          -2
           0          -1          -1          -1          -1          -2
           0          -1          -1          -1          -1          -2
           0          -1          -1          -1          -1          -2
           0           0           0           0           1           0
           0           0           0           1           0           0
           0           0           1           0           0           0
           0           1
Number of primitives per shell             I   N=          50
           6           3           1           1           1           1
           6           3           1           1           1           1
           6           3           1           1           1           1
           6           3           1           1           1           1
           6           3           1           1           1           1
           3           1           1           1           1           3
           1           1           1           1           3           1
           1           1           1           3           1           1
           1           1
Shell to atom map                          I   N=          50
           1           1           1           1           1           1
           2           2           2           2           2           2
           3           3           3           3           3           3
           4           4           4           4           4           4
           5           5           5           5           5           5
           6           6           6           6           6           7
           7           7           7           7           8           8
           8           8           8           9           9           9
           9           9
Primitive exponents                        R   N=          93
  4.56324000E+03  6.82024000E+02  1.54973000E+02  4.44553000E+01  1.30290000E+01
  1.82773000E+00  2.09642000E+01  4.80331000E+00  1.45933000E+00  4.83456000E-01
  1.45585000E-01  4.38000000E-02  6.26000000E-01  4.56324000E+03  6.82024000E+02
  1.54973000E+02  4.44553000E+01  1.30290000E+01  1.82773000E+00  2.09642000E+01
  4.80331000E+00  1.45933000E+00  4.83456000E-01  1.45585000E-01  4.38000000E-02
  6.26000000E-01  4.56324000E+03  6.82024000E+02  1.54973000E+02  4.44553000E+01
  1.30290000E+01  1.82773000E+00  2.09642000E+01  4.80331000E+00  1.45933000E+00
  4.83456000E-01  1.45585000E-01  4.38000000E-02  6.26000000E-01  8.58850000E+03
  1.29723000E+03  2.99296000E+02  8.73771000E+01  2.56789000E+01  3.74004000E+00
  4.21175000E+01  9.62837000E+00  2.85332000E+00  9.05661000E-01  2.55611000E-01
  8.45000000E-02  1.29200000E+00  4.56324000E+03  6.82024000E+02  1.54973000E+02
  4.44553000E+01  1.30290000E+01  1.82773000E+00  2.09642000E+01  4.80331000E+00
  1.45933000E+00  4.83456000E-01  1.45585000E-01  4.38000000E-02  6.26000000E-01
  3.38650000E+01  5.09479000E+00  1.15879000E+00  3.25840000E-01  1.02741000E-01
  3.60000000E-02  7.50000000E-01  3.38650000E+01  5.09479000E+00  1.15879000E+00
  3.25840000E-01  1.02741000E-01  3.60000000E-02  7.50000000E-01  3.38650000E+01
  5.09479000E+00  1.15879000E+00  3.25840000E-01  1.02741000E-01  3.60000000E-02
  7.50000000E-01  3.38650000E+01  5.09479000E+00  1.15879000E+00  3.25840000E-01
  1.02741000E-01  3.60000000E-02  7.50000000E-01
Contraction coefficients                   R   N=          93
  1.96665025E-03  1.52306019E-02  7.61269097E-02  2.60801033E-01  6.16462078E-01
  2.21006028E-01  1.14660081E-01  9.19999648E-01 -3.03068213E-03  1.00000000E+00
  1.00000000E+00  1.00000000E+00  1.00000000E+00  1.96665025E-03  1.52306019E-02
  7.61269097E-02  2.60801033E-01  6.16462078E-01  2.21006028E-01  1.14660081E-01
  9.19999648E-01 -3.03068213E-03  1.00000000E+00  1.00000000E+00  1.00000000E+00
  1.00000000E+00  1.96665025E-03  1.52306019E-02  7.61269097E-02  2.60801033E-01
  6.16462078E-01  2.21006028E-01  1.14660081E-01  9.19999648E-01 -3.03068213E-03
  1.00000000E+00  1.00000000E+00  1.00000000E+00  1.00000000E+00  1.89515008E-03
  1.43859006E-02  7.07320031E-02  2.40001011E-01  5.94797026E-01  2.80802012E-01
  1.13889012E-01  9.20811101E-01 -3.27447036E-03  1.00000000E+00  1.00000000E+00
  1.00000000E+00  1.00000000E+00  1.96665025E-03  1.52306019E-02  7.61269097E-02
  2.60801033E-01  6.16462078E-01  2.21006028E-01  1.14660081E-01  9.19999648E-01
 -3.03068213E-03  1.00000000E+00  1.00000000E+00  1.00000000E+00  1.00000000E+00
  2.54938145E-02  1.90373109E-01  8.52161486E-01  1.00000000E+00  1.00000000E+00
  1.00000000E+00  1.00000000E+00  2.54938145E-02  1.90373109E-01  8.52161486E-01
  1.00000000E+00  1.00000000E+00  1.00000000E+00  1.00000000E+00  2.54938145E-02
  1.90373109E-01  8.52161486E-01  1.00000000E+00  1.00000000E+00  1.00000000E+00
  1.00000000E+00  2.54938145E-02  1.90373109E-01  8.52161486E-01  1.00000000E+00
  1.00000000E+00  1.00000000E+00  1.00000000E+00
P(S=P) Contraction coefficients            R   N=          93
  0.00000000E+00  0.00000000E+00  0.00000000E+00  0.00000000E+00  0.00000000E+00
  0.00000000E+00  4.02486927E-02  2.37593957E-01  8.15853851E-01  1.00000000E+00
  1.00000000E+00  1.00000000E+00  0.00000000E+00  0.00000000E+00  0.00000000E+00
  0.00000000E+00  0.00000000E+00  0.00000000E+00  0.00000000E+00  4.02486927E-02
  2.37593957E-01  8.15853851E-01  1.00000000E+00  1.00000000E+00  1.00000000E+00
  0.00000000E+00  0.00000000E+00  0.00000000E+00  0.00000000E+00  0.00000000E+00
  0.00000000E+00  0.00000000E+00  4.02486927E-02  2.37593957E-01  8.15853851E-01
  1.00000000E+00  1.00000000E+00  1.00000000E+00  0.00000000E+00  0.00000000E+00
  0.00000000E+00  0.00000000E+00  0.00000000E+00  0.00000000E+00  0.00000000E+00
  3.65113974E-02  2.37152983E-01  8.19701941E-01  1.00000000E+00  1.00000000E+00
  1.00000000E+00  0.00000000E+00  0.00000000E+00  0.00000000E+00  0.00000000E+00
  0.00000000E+00  0.00000000E+00  0.00000000E+00  4.02486927E-02  2.37593957E-01
  8.15853851E-01  1.00000000E+00  1.00000000E+00  1.00000000E+00  0.00000000E+00
  0.00000000E+00  0.00000000E+00  0.00000000E+00  0.00000000E+00  0.00000000E+00
  0.00000000E+00  0.00000000E+00  0.00000000E+00  0.00000000E+00  0.00000000E+00
  0.00000000E+00  0.00000000E+00  0.00000000E+00  0.00000000E+00  0.00000000E+00
  0.00000000E+00  0.00000000E+00  0.00000000E+00  0.00000000E+00  0.00000000E+00
  0.00000000E+00  0.00000000E+00  0.00000000E+00  0.00000000E+00  0.00000000E+00
  0.00000000E+00  0.00000000E+00  0.00000000E+00
Coordinates of each shell                  R   N=         150
  0.00000000E+00  1.35621676E+00 -1.80989675E+00  0.00000000E+00  1.35621676E+00
 -1.80989675E+00  0.00000000E+00  1.35621676E+00 -1.80989675E+00  0.00000000E+00
  1.35621676E+00 -1.80989675E+00  0.00000000E+00  1.35621676E+00 -1.80989675E+00
  0.00000000E+00  1.35621676E+00 -1.80989675E+00 -1.66088652E-16 -1.35621676E+00
 -1.80989675E+00 -1.66088652E-16 -1.35621676E+00 -1.80989675E+00 -1.66088652E-16
 -1.35621676E+00 -1.80989675E+00 -1.66088652E-16 -1.35621676E+00 -1.80989675E+00
 -1.66088652E-16 -1.35621676E+00 -1.80989675E+00 -1.66088652E-16 -1.35621676E+00
 -1.80989675E+00  0.00000000E+00 -2.06952224E+00  6.55589249E-01  0.00000000E+00
 -2.06952224E+00  6.55589249E-01  0.00000000E+00 -2.06952224E+00  6.55589249E-01
  0.00000000E+00 -2.06952224E+00  6.55589249E-01  0.00000000E+00 -2.06952224E+00
  6.55589249E-01  0.00000000E+00 -2.06952224E+00  6.55589249E-01  6.74629115E-33
 -1.34925823E-32  2.18929665E+00  6.74629115E-33 -1.34925823E-32  2.18929665E+00
  6.74629115E-33 -1.34925823E-32  2.18929665E+00  6.74629115E-33 -1.34925823E-32
  2.18929665E+00  6.74629115E-33 -1.34925823E-32  2.18929665E+00  6.74629115E-33
 -1.34925823E-32  2.18929665E+00  2.53443378E-16  2.06952224E+00  6.55589249E-01
  2.53443378E-16  2.06952224E+00  6.55589249E-01  2.53443378E-16  2.06952224E+00
  6.55589249E-01  2.53443378E-16  2.06952224E+00  6.55589249E-01  2.53443378E-16
  2.06952224E+00  6.55589249E-01  2.53443378E-16  2.06952224E+00  6.55589249E-01
  0.00000000E+00  2.59535743E+00 -3.42739083E+00  0.00000000E+00  2.59535743E+00
 -3.42739083E+00  0.00000000E+00  2.59535743E+00 -3.42739083E+00  0.00000000E+00
  2.59535743E+00 -3.42739083E+00  0.00000000E+00  2.59535743E+00 -3.42739083E+00
 -3.17839617E-16 -2.59535743E+00 -3.42739083E+00 -3.17839617E-16 -2.59535743E+00
 -3.42739083E+00 -3.17839617E-16 -2.59535743E+00 -3.42739083E+00 -3.17839617E-16
 -2.59535743E+00 -3.42739083E+00 -3.17839617E-16 -2.59535743E+00 -3.42739083E+00
  0.00000000E+00 -3.87348693E+00  1.59604925E+00  0.00000000E+00 -3.87348693E+00
  1.59604925E+00  0.00000000E+00 -3.87348693E+00  1.59604925E+00  0.00000000E+00
 -3.87348693E+00  1.59604925E+00  0.00000000E+00 -3.87348693E+00  1.59604925E+00
  4.74365337E-16  3.87348693E+00  1.59604925E+00  4.74365337E-16  3.87348693E+00
  1.59604925E+00  4.74365337E-16  3.87348693E+00  1.59604925E+00  4.74365337E-16
  3.87348693E+00  1.59604925E+00  4.74365337E-16  3.87348693E+00  1.59604925E+00
Constraint Structure                       R   N=          27
  0.00000000E+00  1.35621676E+00 -1.80989675E+00 -1.66088652E-16 -1.35621676E+00
 -1.80989675E+00  0.00000000E+00 -2.06952224E+00  6.55589249E-01  6.74629115E-33
 -1.34925823E-32  2.18929665E+00  2.53443378E-16  2.06952224E+00  6.55589249E-01
  0.00000000E+00  2.59535743E+00 -3.42739083E+00 -3.17839617E-16 -2.59535743E+00
 -3.42739083E+00  0.00000000E+00 -3.87348693E+00  1.59604925E+00  4.74365337E-16
  3.87348693E+00  1.59604925E+00
Num ILSW                                   I              100
ILSW                                       I   N=         100
           0           0           0           0           2           0
           0           0           0           0           0          -1
           0           0           0           0           0           0
           0           0           0           0           0           0
           1           0           0           0           0           0
           0           0      100000           0          -1           0
           0           0           0           0           0           0
           0           0           0           1           0           0
           0           0           1           0           0           0
           0           0           4          40           0           0
           0           0           0           0           0           0
           0           0           0           0           0           0
           0           0           0           0           0           0
           0           0           0           0           0           0
           0           0           0           0           0           0
           0           0           0           0           0           0
           0           0           0           0
Num RLSW                                   I               40
RLSW                                       R   N=          40
  1.00000000E+00  1.00000000E+00  1.00000000E+00  1.00000000E+00  1.00000000E+00
  0.00000000E+00  0.00000000E+00  1.00000000E+00  0.00000000E+00  0.00000000E+00
  0.00000000E+00  0.00000000E+00  1.00000000E+00  0.00000000E+00  0.00000000E+00
  0.00000000E+00  0.00000000E+00  1.00000000E+00  0.00000000E+00  0.00000000E+00
  0.00000000E+00  0.00000000E+00  1.00000000E+00  0.00000000E+00  0.00000000E+00
  0.00000000E+00  0.00000000E+00  1.00000000E+00  0.00000000E+00  0.00000000E+00
  0.00000000E+00  0.00000000E+00  0.00000000E+00  0.00000000E+00  0.00000000E+00
  0.00000000E+00  0.00000000E+00  0.00000000E+00  1.00000000E+00  1.00000000E+00
MxBond                                     I                3
NBond                                      I   N=           9
           3           3           3           2           3           1
           1           1           1
IBond                                      I   N=          27
           2           5           6           1           3           7
           2           4           8           3           5           0
           1           4           9           1           0           0
           2           0           0           3           0           0
           5           0           0
RBond                                      R   N=          27
  1.00000000E+00  2.00000000E+00  1.00000000E+00  1.00000000E+00  2.00000000E+00
  1.00000000E+00  2.00000000E+00  1.50000000E+00  1.00000000E+00  1.50000000E+00
  1.50000000E+00  0.00000000E+00  2.00000000E+00  1.50000000E+00  1.00000000E+00
  1.00000000E+00  0.00000000E+00  0.00000000E+00  1.00000000E+00  0.00000000E+00
  0.00000000E+00  1.00000000E+00  0.00000000E+00  0.00000000E+00  1.00000000E+00
  0.00000000E+00  0.00000000E+00
Virial Ratio                               R      2.001279466161197E+00
SCF Energy                                 R     -2.286830142566644E+02
MP2 Energy                                 R     -2.294359552243369E+02
Total Energy                               R     -2.294359552243369E+02
Post-SCF wavefunction norm                 R      1.118761531639384E+00
RMS Density                                R      4.620218719713242E-09
External E-field                           R   N=          35
  0.00000000E+00  0.00000000E+00  0.00000000E+00  0.00000000E+00  0.00000000E+00
  0.00000000E+00  0.00000000E+00  0.00000000E+00  0.00000000E+00  0.00000000E+00
  0.00000000E+00  0.00000000E+00  0.00000000E+00  0.00000000E+00  0.00000000E+00
  0.00000000E+00  0.00000000E+00  0.00000000E+00  0.00000000E+00  0.00000000E+00
  0.00000000E+00  0.00000000E+00  0.00000000E+00  0.00000000E+00  0.00000000E+00
  0.00000000E+00  0.00000000E+00  0.00000000E+00  0.00000000E+00  0.00000000E+00
  0.00000000E+00  0.00000000E+00  0.00000000E+00  0.00000000E+00  0.00000000E+00
IOpCl                                      I                0
IROHF                                      I                0
Alpha Orbital Energies                     R   N=         138
 -2.06242374E+01 -1.12917930E+01 -1.12917474E+01 -1.12351905E+01 -1.12342286E+01
 -1.46073888E+00 -1.08715582E+00 -1.00820355E+00 -8.09560890E-01 -7.83458971E-01
 -7.41628956E-01 -6.33117302E-01 -6.12418126E-01 -5.80276457E-01 -5.66724051E-01
 -5.42494988E-01 -3.99213149E-01 -3.22310126E-01  4.22410791E-02  4.85072939E-02
  5.49391359E-02  6.78606595E-02  1.04038693E-01  1.16217072E-01  1.29343879E-01
  1.50568400E-01  1.50710229E-01  1.51630514E-01  1.56218926E-01  1.61986440E-01
  1.80247947E-01  1.88429941E-01  1.96014401E-01  1.96943542E-01  1.97078324E-01
  2.10967708E-01  2.26036771E-01  2.26783605E-01  2.69510605E-01  2.79240804E-01
  3.22339561E-01  3.54503141E-01  3.62617196E-01  3.68331817E-01  3.86101441E-01
  4.10220011E-01  4.28210728E-01  4.34479153E-01  4.41543169E-01  4.51030034E-01
  5.21415500E-01  6.15243205E-01  6.42512382E-01  6.42987267E-01  7.02528773E-01
  7.11972465E-01  7.27500900E-01  7.35766999E-01  7.76283299E-01  7.94140726E-01
  8.16866386E-01  8.33078533E-01  8.92080567E-01  9.41914932E-01  9.68662030E-01
  9.78601673E-01  9.92854913E-01  1.01235000E+00  1.05649549E+00  1.09301281E+00
  1.09998537E+00  1.13255812E+00  1.17578617E+00  1.26411214E+00  1.29951424E+00
  1.34085604E+00  1.35856284E+00  1.39569907E+00  1.42476849E+00  1.46525804E+00
  1.48710412E+00  1.62269757E+00  1.75002261E+00  1.76977351E+00  1.77592558E+00
  1.82177840E+00  1.90786797E+00  1.94980516E+00  1.95440996E+00  1.97470844E+00
  2.04116605E+00  2.04690054E+00  2.06955161E+00  2.10252825E+00  2.19435965E+00
  2.20331731E+00  2.27630604E+00  2.31359793E+00  2.32914403E+00  2.33904849E+00
  2.50124671E+00  2.60496637E+00  2.63810561E+00  2.66267209E+00  2.83003845E+00
  2.92925834E+00  2.96188124E+00  3.01956813E+00  3.05180638E+00  3.05627489E+00
  3.08359809E+00  3.08387420E+00  3.08649501E+00  3.09841975E+00  3.17194024E+00
  3.37739708E+00  3.44280725E+00  3.46102302E+00  3.55581608E+00  3.58044722E+00
  3.63910409E+00  3.75033051E+00  3.87752005E+00  3.89574437E+00  3.96362588E+00
  4.39210152E+00  4.40874478E+00  4.47273519E+00  4.49475708E+00  4.80517844E+00
  5.52271541E+00  5.98111282E+00  6.35535683E+00  2.48296717E+01  2.49974720E+01
  2.53294389E+01  2.53935494E+01  5.15754085E+01
Alpha MO coefficients                      R   N=       19044
  2.83288098E-06 -5.22283094E-06  0.00000000E+00  7.23931422E-07 -2.15017182E-06
  5.50439288E-05  0.00000000E+00 -2.78505940E-06  2.92468992E-05 -1.02795951E-04
  0.00000000E+00  1.21692074E-04 -1.51825380E-04  8.41326074E-05  0.00000000E+00
 -1.02932178E-04  6.65972156E-05  5.53500058E-06  0.00000000E+00  2.61646500E-05
  4.40020782E-06  0.00000000E+00  2.83288098E-06 -5.22283094E-06  0.00000000E+00
 -7.23931422E-07 -2.15017182E-06  5.50439288E-05  0.00000000E+00  2.78505940E-06
  2.92468992E-05 -1.02795951E-04  0.00000000E+00 -1.21692074E-04 -1.51825380E-04
  8.41326074E-05  0.00000000E+00  1.02932178E-04  6.65972156E-05  5.53500058E-06
  0.00000000E+00 -2.61646500E-05  4.40020782E-06  0.00000000E+00 -1.57763330E-06
 -3.65220756E-05  0.00000000E+00  1.81697449E-05  2.37501725E-05  1.40353260E-04
  0.00000000E+00  2.57430848E-04  1.61216152E-04  1.34139662E-04  0.00000000E+00
  1.40673407E-04 -3.56747139E-05 -4.41098039E-04  0.00000000E+00 -1.53316811E-04
 -1.24452145E-04 -4.06143297E-05  0.00000000E+00  1.30037863E-04 -6.42213720E-05
  0.00000000E+00  5.51484526E-01  4.71658555E-01  0.00000000E+00  0.00000000E+00
 -1.68268547E-03  5.62203786E-03  0.00000000E+00  0.00000000E+00  6.78770379E-04
 -1.22269798E-03  0.00000000E+00  0.00000000E+00 -1.38611915E-04  1.15637793E-03
  0.00000000E+00  0.00000000E+00  4.55735227E-05  5.74170235E-05  0.00000000E+00
  0.00000000E+00  9.43026411E-05  0.00000000E+00 -1.57763330E-06 -3.65220756E-05
  0.00000000E+00 -1.81697449E-05  2.37501725E-05  1.40353260E-04  0.00000000E+00
 -2.57430848E-04  1.61216152E-04  1.34139662E-04  0.00000000E+00 -1.40673407E-04
 -3.56747139E-05 -4.41098039E-04  0.00000000E+00  1.53316811E-04 -1.24452145E-04
 -4.06143297E-05  0.00000000E+00 -1.30037863E-04 -6.42213720E-05  0.00000000E+00
  1.36176366E-05 -3.78143577E-05 -7.02221832E-05  2.97595315E-05  0.00000000E+00
 -4.37361190E-06  5.03076811E-06  1.36176366E-05 -3.78143577E-05 -7.02221832E-05
  2.97595315E-05  0.00000000E+00  4.37361190E-06  5.03076811E-06  2.11945758E-07
  7.99046013E-05 -1.76750819E-05  1.03972558E-04  0.00000000E+00  3.20671747E-05
 -1.69727914E-05  2.11945758E-07  7.99046013E-05 -1.76750819E-05  1.03972558E-04
  0.00000000E+00 -3.20671747E-05 -1.69727914E-05 -5.16910529E-03 -4.26299424E-03
  0.00000000E+00 -5.26442781E-05 -1.88174648E-04 -1.44937014E-04  0.00000000E+00
  1.58385323E-05  2.84462172E-04  1.07737087E-03  0.00000000E+00 -4.50436041E-04
  3.25589453E-04  8.33286469E-04  0.00000000E+00 -2.02914676E-04 -3.36836026E-04
  1.21570277E-04  0.00000000E+00 -6.62612367E-06 -5.34583779E-05  0.00000000E+00
  5.16910529E-03  4.26299424E-03  0.00000000E+00 -5.26442781E-05  1.88174648E-04
  1.44937014E-04  0.00000000E+00  1.58385323E-05 -2.84462172E-04 -1.07737087E-03
  0.00000000E+00 -4.50436041E-04 -3.25589453E-04 -8.33286469E-04  0.00000000E+00
 -2.02914676E-04  3.36836026E-04 -1.21570277E-04  0.00000000E+00 -6.62612367E-06
  5.34583779E-05  0.00000000E+00  3.98358303E-01  3.29875916E-01  0.00000000E+00
  6.24233517E-04  7.69432140E-04  2.91965354E-03  0.00000000E+00 -3.36679143E-04
 -8.37540920E-04  3.85899524E-04  0.00000000E+00  6.34297654E-04  1.39924973E-04
  1.37244278E-03  0.00000000E+00  1.35481628E-03 -5.71794061E-04  3.04520529E-04
  0.00000000E+00 -4.34088424E-04 -1.38982606E-04  0.00000000E+00  0.00000000E+00
  0.00000000E+00  0.00000000E+00 -1.26148560E-04  0.00000000E+00  0.00000000E+00
  0.00000000E+00 -8.21398355E-04  0.00000000E+00  0.00000000E+00  0.00000000E+00
  1.86456739E-04  0.00000000E+00  0.00000000E+00  0.00000000E+00  1.91531252E-04
  0.00000000E+00  0.00000000E+00  0.00000000E+00  3.22776520E-04  0.00000000E+00
  0.00000000E+00 -3.98358303E-01 -3.29875916E-01  0.00000000E+00  6.24233517E-04
 -7.69432140E-04 -2.91965354E-03  0.00000000E+00 -3.36679143E-04  8.37540920E-04
 -3.85899524E-04  0.00000000E+00  6.34297654E-04 -1.39924973E-04 -1.37244278E-03
  0.00000000E+00  1.35481628E-03  5.71794061E-04 -3.04520529E-04  0.00000000E+00
 -4.34088424E-04  1.38982606E-04  0.00000000E+00 -1.29516357E-05  1.24111287E-04
  2.80696789E-05 -5.60568319E-05  0.00000000E+00 -2.06927647E-05  5.32585914E-06
  1.29516357E-05 -1.24111287E-04 -2.80696789E-05  5.60568319E-05  0.00000000E+00
 -2.06927647E-05 -5.32585914E-06  2.38157991E-04 -2.03938056E-04  7.08981024E-04
  7.16248703E-04  0.00000000E+00 -8.17658008E-05 -1.21383017E-05 -2.38157991E-04
  2.03938056E-04 -7.08981024E-04 -7.16248703E-04  0.00000000E+00 -8.17658008E-05
  1.21383017E-05  5.13766043E-03  4.23079099E-03  0.00000000E+00  4.93672691E-05
  1.65680804E-04  1.57521186E-04  0.00000000E+00 -2.47580500E-05 -1.40923730E-04
 -8.47609157E-05  0.00000000E+00  1.23564695E-05  7.15246273E-05  1.58311610E-03
  0.00000000E+00  2.36361545E-04  2.72664141E-04 -8.01744672E-05  0.00000000E+00
 -1.81201350E-05  6.70636951E-05  0.00000000E+00  5.13766043E-03  4.23079099E-03
  0.00000000E+00 -4.93672691E-05  1.65680804E-04  1.57521186E-04  0.00000000E+00
  2.47580500E-05 -1.40923730E-04 -8.47609157E-05  0.00000000E+00 -1.23564695E-05
  7.15246273E-05  1.58311610E-03  0.00000000E+00 -2.36361545E-04  2.72664141E-04
 -8.01744672E-05  0.00000000E+00  1.81201350E-05  6.70636951E-05  0.00000000E+00
  3.98363393E-01  3.29884585E-01  0.00000000E+00  6.10910069E-04  7.48168371E-04
  2.94232419E-03  0.00000000E+00 -3.31926223E-04 -7.59470817E-04 -8.71959048E-04
  0.00000000E+00 -1.34994088E-04  1.54385251E-04 -1.37008731E-03  0.00000000E+00
 -3.21477300E-05  4.08088411E-04  2.80213118E-04  0.00000000E+00 -3.60887032E-04
 -1.15727066E-04  0.00000000E+00 -1.28205382E-04 -2.38177881E-04  0.00000000E+00
  0.00000000E+00 -1.15836590E-04  6.09604818E-04  0.00000000E+00  0.00000000E+00
 -5.35194581E-04  4.75373300E-04  0.00000000E+00  0.00000000E+00 -1.22632990E-04
  7.18915184E-04  0.00000000E+00  0.00000000E+00 -5.12173071E-04 -1.81069429E-05
  0.00000000E+00  0.00000000E+00 -1.66792337E-04  0.00000000E+00  3.98363393E-01
  3.29884585E-01  0.00000000E+00 -6.10910069E-04  7.48168371E-04  2.94232419E-03
  0.00000000E+00  3.31926223E-04 -7.59470817E-04 -8.71959048E-04  0.00000000E+00
  1.34994088E-04  1.54385251E-04 -1.37008731E-03  0.00000000E+00  3.21477300E-05
  4.08088411E-04  2.80213118E-04  0.00000000E+00  3.60887032E-04 -1.15727066E-04
  0.00000000E+00 -5.64198989E-06  2.55055247E-05 -2.96808354E-05 -1.36541785E-04
  0.00000000E+00  1.06337473E-05  9.07687854E-06 -5.64198989E-06  2.55055247E-05
 -2.96808354E-05 -1.36541785E-04  0.00000000E+00 -1.06337473E-05  9.07687854E-06
  2.50120310E-04 -1.45179368E-04  2.37561716E-04 -6.97021804E-05  0.00000000E+00
 -4.13601972E-05 -2.05352514E-06  2.50120310E-04 -1.45179368E-04  2.37561716E-04
 -6.97021804E-05  0.00000000E+00  4.13601972E-05 -2.05352514E-06  3.98232365E-01
  3.29773658E-01  0.00000000E+00 -1.94122176E-04 -8.11895293E-05  3.40053199E-03
  0.00000000E+00 -1.13444708E-04  2.63534490E-04 -5.57087947E-04  0.00000000E+00
 -3.16783552E-05  1.89541214E-05  3.36855653E-03  0.00000000E+00 -3.91765493E-04
  1.25678088E-03  1.93505014E-04  0.00000000E+00  2.10352984E-05 -2.02681203E-04
  0.00000000E+00  3.98232365E-01  3.29773658E-01  0.00000000E+00  1.94122176E-04
 -8.11895293E-05  3.40053199E-03  0.00000000E+00  1.13444708E-04  2.63534490E-04
 -5.57087947E-04  0.00000000E+00  3.16783552E-05  1.89541214E-05  3.36855653E-03
  0.00000000E+00  3.91765493E-04  1.25678088E-03  1.93505014E-04  0.00000000E+00
 -2.10352984E-05 -2.02681203E-04  0.00000000E+00 -5.28924680E-03 -4.42857864E-03
  0.00000000E+00  3.88996692E-05 -1.87730274E-04  2.49489810E-04  0.00000000E+00
  2.44881713E-05  1.10785770E-05 -6.14599947E-04  0.00000000E+00 -2.38811417E-04
 -1.09922969E-04 -3.43490846E-03  0.00000000E+00 -9.06056018E-04  1.06868331E-03
 -9.52472872E-06  0.00000000E+00  2.34891705E-05  1.05296165E-04  0.00000000E+00
  6.28500281E-06  5.18416873E-06  0.00000000E+00  0.00000000E+00  2.70452341E-05
  1.91994489E-05  0.00000000E+00  0.00000000E+00 -2.62072764E-05  2.46260164E-05
  0.00000000E+00  0.00000000E+00  6.01566716E-06  1.35761897E-03  0.00000000E+00
  0.00000000E+00 -4.96229863E-04  1.95199058E-05  0.00000000E+00  0.00000000E+00
  6.72529833E-06  0.00000000E+00 -5.28924680E-03 -4.42857864E-03  0.00000000E+00
 -3.88996692E-05 -1.87730274E-04  2.49489810E-04  0.00000000E+00 -2.44881713E-05
  1.10785770E-05 -6.14599947E-04  0.00000000E+00  2.38811417E-04 -1.09922969E-04
 -3.43490846E-03  0.00000000E+00  9.06056018E-04  1.06868331E-03 -9.52472872E-06
  0.00000000E+00 -2.34891705E-05  1.05296165E-04  0.00000000E+00  2.78122301E-04
 -8.41460377E-05  3.77633805E-04  4.41252389E-04  0.00000000E+00 -6.69940744E-07
  2.47137189E-06  2.78122301E-04 -8.41460377E-05  3.77633805E-04  4.41252389E-04
  0.00000000E+00  6.69940744E-07  2.47137189E-06 -5.52094188E-06  7.20678038E-05
 -1.91814908E-04 -4.79326242E-04  0.00000000E+00  1.86628678E-05 -1.62101372E-05
 -5.52094188E-06  7.20678038E-05 -1.91814908E-04 -4.79326242E-04  0.00000000E+00
 -1.86628678E-05 -1.62101372E-05  3.98331160E-01  3.29943648E-01  0.00000000E+00
  6.30902123E-05 -9.81473642E-05  2.97836880E-03  0.00000000E+00  2.86863480E-04
  4.05208581E-04 -9.59300034E-04  0.00000000E+00  1.79774370E-04 -5.09424578E-04