X=COCH3 - In the original geometry missing oxygen                       
SP        RMP2-FC                                                     6-311++G(d,p)       
Number of atoms                            I               17
Info1-9                                    I   N=           9
          50          26           0           0           0         110
           1           2           1
Charge                                     I                0
Multiplicity                               I                1
Number of electrons                        I               64
Number of alpha electrons                  I               32
Number of beta electrons                   I               32
Number of basis functions                  I              254
Number of independent functions            I              253
Number of point charges in /Mol/           I                0
Number of translation vectors              I                0
Atomic numbers                             I   N=          17
           6           6           6           6           6           6
           6           8           6           1           1           1
           1           1           1           1           1
Nuclear charges                            R   N=          17
  6.00000000E+00  6.00000000E+00  6.00000000E+00  6.00000000E+00  6.00000000E+00
  6.00000000E+00  6.00000000E+00  8.00000000E+00  6.00000000E+00  1.00000000E+00
  1.00000000E+00  1.00000000E+00  1.00000000E+00  1.00000000E+00  1.00000000E+00
  1.00000000E+00  1.00000000E+00
Current cartesian coordinates              R   N=          51
 -3.71604644E+00 -2.14452816E+00  1.93106389E-05 -4.89515080E+00  2.16137797E-01
  9.86791365E-05 -3.44160097E+00  2.41196233E+00  4.57668048E-05 -8.13790668E-01
  2.25150486E+00 -6.76167632E-05  3.86291363E-01 -1.08640986E-01 -1.50764713E-04
 -1.09568464E+00 -2.30492013E+00 -1.07301012E-04  3.21050078E+00 -3.86167675E-01
 -3.22729791E-04  4.18246677E+00 -2.46997116E+00  6.08255599E-06  4.83506114E+00
  1.97710818E+00  2.66864762E-04 -1.45409847E-01 -4.11774897E+00 -1.81000331E-04
 -4.84543767E+00 -3.85391676E+00  5.52154354E-05 -6.94042710E+00  3.41798689E-01
  1.93165443E-04 -4.35217714E+00  4.24705508E+00  9.86791365E-05  2.90204296E-01
  3.97520466E+00 -1.11080464E-04  6.81467897E+00  1.41745768E+00  5.29536695E-04
  4.45095856E+00  3.13778268E+00 -1.66668134E+00  4.45039716E+00  3.13739888E+00
  1.66735491E+00
Force Field                                I                0
Int Atom Types                             I   N=          17
           0           0           0           0           0           0
           0           0           0           0           0           0
           0           0           0           0           0
MM charges                                 R   N=          17
  0.00000000E+00  0.00000000E+00  0.00000000E+00  0.00000000E+00  0.00000000E+00
  0.00000000E+00  0.00000000E+00  0.00000000E+00  0.00000000E+00  0.00000000E+00
  0.00000000E+00  0.00000000E+00  0.00000000E+00  0.00000000E+00  0.00000000E+00
  0.00000000E+00  0.00000000E+00
Integer atomic weights                     I   N=          17
          12          12          12          12          12          12
          12          16          12           1           1           1
           1           1           1           1           1
Real atomic weights                        R   N=          17
  1.20000000E+01  1.20000000E+01  1.20000000E+01  1.20000000E+01  1.20000000E+01
  1.20000000E+01  1.20000000E+01  1.59949146E+01  1.20000000E+01  1.00782504E+00
  1.00782504E+00  1.00782504E+00  1.00782504E+00  1.00782504E+00  1.00782504E+00
  1.00782504E+00  1.00782504E+00
Atom fragment info                         I   N=          17
           0           0           0           0           0           0
           0           0           0           0           0           0
           0           0           0           0           0
Atom residue num                           I   N=          17
           0           0           0           0           0           0
           0           0           0           0           0           0
           0           0           0           0           0
Nuclear spins                              I   N=          17
           0           0           0           0           0           0
           0           0           0           1           1           1
           1           1           1           1           1
Nuclear ZEff                               R   N=          17
 -3.60000000E+00 -3.60000000E+00 -3.60000000E+00 -3.60000000E+00 -3.60000000E+00
 -3.60000000E+00 -3.60000000E+00 -5.60000000E+00 -3.60000000E+00 -1.00000000E+00
 -1.00000000E+00 -1.00000000E+00 -1.00000000E+00 -1.00000000E+00 -1.00000000E+00
 -1.00000000E+00 -1.00000000E+00
Nuclear QMom                               R   N=          17
  0.00000000E+00  0.00000000E+00  0.00000000E+00  0.00000000E+00  0.00000000E+00
  0.00000000E+00  0.00000000E+00  0.00000000E+00  0.00000000E+00  0.00000000E+00
  0.00000000E+00  0.00000000E+00  0.00000000E+00  0.00000000E+00  0.00000000E+00
  0.00000000E+00  0.00000000E+00
Nuclear GFac                               R   N=          17
  0.00000000E+00  0.00000000E+00  0.00000000E+00  0.00000000E+00  0.00000000E+00
  0.00000000E+00  0.00000000E+00  0.00000000E+00  0.00000000E+00  2.79284600E+00
  2.79284600E+00  2.79284600E+00  2.79284600E+00  2.79284600E+00  2.79284600E+00
  2.79284600E+00  2.79284600E+00
MicOpt                                     I   N=          17
          -1          -1          -1          -1          -1          -1
          -1          -1          -1          -1          -1          -1
          -1          -1          -1          -1          -1
Number of contracted shells                I               94
Number of primitive shells                 I              173
Pure/Cartesian d shells                    I                0
Pure/Cartesian f shells                    I                0
Highest angular momentum                   I                2
Largest degree of contraction              I                6
Shell types                                I   N=          94
           0          -1          -1          -1          -1          -2
           0          -1          -1          -1          -1          -2
           0          -1          -1          -1          -1          -2
           0          -1          -1          -1          -1          -2
           0          -1          -1          -1          -1          -2
           0          -1          -1          -1          -1          -2
           0          -1          -1          -1          -1          -2
           0          -1          -1          -1          -1          -2
           0          -1          -1          -1          -1          -2
           0           0           0           0           1           0
           0           0           0           1           0           0
           0           0           1           0           0           0
           0           1           0           0           0           0
           1           0           0           0           0           1
           0           0           0           0           1           0
           0           0           0           1
Number of primitives per shell             I   N=          94
           6           3           1           1           1           1
           6           3           1           1           1           1
           6           3           1           1           1           1
           6           3           1           1           1           1
           6           3           1           1           1           1
           6           3           1           1           1           1
           6           3           1           1           1           1
           6           3           1           1           1           1
           6           3           1           1           1           1
           3           1           1           1           1           3
           1           1           1           1           3           1
           1           1           1           3           1           1
           1           1           3           1           1           1
           1           3           1           1           1           1
           3           1           1           1           1           3
           1           1           1           1
Shell to atom map                          I   N=          94
           1           1           1           1           1           1
           2           2           2           2           2           2
           3           3           3           3           3           3
           4           4           4           4           4           4
           5           5           5           5           5           5
           6           6           6           6           6           6
           7           7           7           7           7           7
           8           8           8           8           8           8
           9           9           9           9           9           9
          10          10          10          10          10          11
          11          11          11          11          12          12
          12          12          12          13          13          13
          13          13          14          14          14          14
          14          15          15          15          15          15
          16          16          16          16          16          17
          17          17          17          17
Primitive exponents                        R   N=         173
  4.56324000E+03  6.82024000E+02  1.54973000E+02  4.44553000E+01  1.30290000E+01
  1.82773000E+00  2.09642000E+01  4.80331000E+00  1.45933000E+00  4.83456000E-01
  1.45585000E-01  4.38000000E-02  6.26000000E-01  4.56324000E+03  6.82024000E+02
  1.54973000E+02  4.44553000E+01  1.30290000E+01  1.82773000E+00  2.09642000E+01
  4.80331000E+00  1.45933000E+00  4.83456000E-01  1.45585000E-01  4.38000000E-02
  6.26000000E-01  4.56324000E+03  6.82024000E+02  1.54973000E+02  4.44553000E+01
  1.30290000E+01  1.82773000E+00  2.09642000E+01  4.80331000E+00  1.45933000E+00
  4.83456000E-01  1.45585000E-01  4.38000000E-02  6.26000000E-01  4.56324000E+03
  6.82024000E+02  1.54973000E+02  4.44553000E+01  1.30290000E+01  1.82773000E+00
  2.09642000E+01  4.80331000E+00  1.45933000E+00  4.83456000E-01  1.45585000E-01
  4.38000000E-02  6.26000000E-01  4.56324000E+03  6.82024000E+02  1.54973000E+02
  4.44553000E+01  1.30290000E+01  1.82773000E+00  2.09642000E+01  4.80331000E+00
  1.45933000E+00  4.83456000E-01  1.45585000E-01  4.38000000E-02  6.26000000E-01
  4.56324000E+03  6.82024000E+02  1.54973000E+02  4.44553000E+01  1.30290000E+01
  1.82773000E+00  2.09642000E+01  4.80331000E+00  1.45933000E+00  4.83456000E-01
  1.45585000E-01  4.38000000E-02  6.26000000E-01  4.56324000E+03  6.82024000E+02
  1.54973000E+02  4.44553000E+01  1.30290000E+01  1.82773000E+00  2.09642000E+01
  4.80331000E+00  1.45933000E+00  4.83456000E-01  1.45585000E-01  4.38000000E-02
  6.26000000E-01  8.58850000E+03  1.29723000E+03  2.99296000E+02  8.73771000E+01
  2.56789000E+01  3.74004000E+00  4.21175000E+01  9.62837000E+00  2.85332000E+00
  9.05661000E-01  2.55611000E-01  8.45000000E-02  1.29200000E+00  4.56324000E+03
  6.82024000E+02  1.54973000E+02  4.44553000E+01  1.30290000E+01  1.82773000E+00
  2.09642000E+01  4.80331000E+00  1.45933000E+00  4.83456000E-01  1.45585000E-01
  4.38000000E-02  6.26000000E-01  3.38650000E+01  5.09479000E+00  1.15879000E+00
  3.25840000E-01  1.02741000E-01  3.60000000E-02  7.50000000E-01  3.38650000E+01
  5.09479000E+00  1.15879000E+00  3.25840000E-01  1.02741000E-01  3.60000000E-02
  7.50000000E-01  3.38650000E+01  5.09479000E+00  1.15879000E+00  3.25840000E-01
  1.02741000E-01  3.60000000E-02  7.50000000E-01  3.38650000E+01  5.09479000E+00
  1.15879000E+00  3.25840000E-01  1.02741000E-01  3.60000000E-02  7.50000000E-01
  3.38650000E+01  5.09479000E+00  1.15879000E+00  3.25840000E-01  1.02741000E-01
  3.60000000E-02  7.50000000E-01  3.38650000E+01  5.09479000E+00  1.15879000E+00
  3.25840000E-01  1.02741000E-01  3.60000000E-02  7.50000000E-01  3.38650000E+01
  5.09479000E+00  1.15879000E+00  3.25840000E-01  1.02741000E-01  3.60000000E-02
  7.50000000E-01  3.38650000E+01  5.09479000E+00  1.15879000E+00  3.25840000E-01
  1.02741000E-01  3.60000000E-02  7.50000000E-01
Contraction coefficients                   R   N=         173
  1.96665025E-03  1.52306019E-02  7.61269097E-02  2.60801033E-01  6.16462078E-01
  2.21006028E-01  1.14660081E-01  9.19999648E-01 -3.03068213E-03  1.00000000E+00
  1.00000000E+00  1.00000000E+00  1.00000000E+00  1.96665025E-03  1.52306019E-02
  7.61269097E-02  2.60801033E-01  6.16462078E-01  2.21006028E-01  1.14660081E-01
  9.19999648E-01 -3.03068213E-03  1.00000000E+00  1.00000000E+00  1.00000000E+00
  1.00000000E+00  1.96665025E-03  1.52306019E-02  7.61269097E-02  2.60801033E-01
  6.16462078E-01  2.21006028E-01  1.14660081E-01  9.19999648E-01 -3.03068213E-03
  1.00000000E+00  1.00000000E+00  1.00000000E+00  1.00000000E+00  1.96665025E-03
  1.52306019E-02  7.61269097E-02  2.60801033E-01  6.16462078E-01  2.21006028E-01
  1.14660081E-01  9.19999648E-01 -3.03068213E-03  1.00000000E+00  1.00000000E+00
  1.00000000E+00  1.00000000E+00  1.96665025E-03  1.52306019E-02  7.61269097E-02
  2.60801033E-01  6.16462078E-01  2.21006028E-01  1.14660081E-01  9.19999648E-01
 -3.03068213E-03  1.00000000E+00  1.00000000E+00  1.00000000E+00  1.00000000E+00
  1.96665025E-03  1.52306019E-02  7.61269097E-02  2.60801033E-01  6.16462078E-01
  2.21006028E-01  1.14660081E-01  9.19999648E-01 -3.03068213E-03  1.00000000E+00
  1.00000000E+00  1.00000000E+00  1.00000000E+00  1.96665025E-03  1.52306019E-02
  7.61269097E-02  2.60801033E-01  6.16462078E-01  2.21006028E-01  1.14660081E-01
  9.19999648E-01 -3.03068213E-03  1.00000000E+00  1.00000000E+00  1.00000000E+00
  1.00000000E+00  1.89515008E-03  1.43859006E-02  7.07320031E-02  2.40001011E-01
  5.94797026E-01  2.80802012E-01  1.13889012E-01  9.20811101E-01 -3.27447036E-03
  1.00000000E+00  1.00000000E+00  1.00000000E+00  1.00000000E+00  1.96665025E-03
  1.52306019E-02  7.61269097E-02  2.60801033E-01  6.16462078E-01  2.21006028E-01
  1.14660081E-01  9.19999648E-01 -3.03068213E-03  1.00000000E+00  1.00000000E+00
  1.00000000E+00  1.00000000E+00  2.54938145E-02  1.90373109E-01  8.52161486E-01
  1.00000000E+00  1.00000000E+00  1.00000000E+00  1.00000000E+00  2.54938145E-02
  1.90373109E-01  8.52161486E-01  1.00000000E+00  1.00000000E+00  1.00000000E+00
  1.00000000E+00  2.54938145E-02  1.90373109E-01  8.52161486E-01  1.00000000E+00
  1.00000000E+00  1.00000000E+00  1.00000000E+00  2.54938145E-02  1.90373109E-01
  8.52161486E-01  1.00000000E+00  1.00000000E+00  1.00000000E+00  1.00000000E+00
  2.54938145E-02  1.90373109E-01  8.52161486E-01  1.00000000E+00  1.00000000E+00
  1.00000000E+00  1.00000000E+00  2.54938145E-02  1.90373109E-01  8.52161486E-01
  1.00000000E+00  1.00000000E+00  1.00000000E+00  1.00000000E+00  2.54938145E-02
  1.90373109E-01  8.52161486E-01  1.00000000E+00  1.00000000E+00  1.00000000E+00
  1.00000000E+00  2.54938145E-02  1.90373109E-01  8.52161486E-01  1.00000000E+00
  1.00000000E+00  1.00000000E+00  1.00000000E+00
P(S=P) Contraction coefficients            R   N=         173
  0.00000000E+00  0.00000000E+00  0.00000000E+00  0.00000000E+00  0.00000000E+00
  0.00000000E+00  4.02486927E-02  2.37593957E-01  8.15853851E-01  1.00000000E+00
  1.00000000E+00  1.00000000E+00  0.00000000E+00  0.00000000E+00  0.00000000E+00
  0.00000000E+00  0.00000000E+00  0.00000000E+00  0.00000000E+00  4.02486927E-02
  2.37593957E-01  8.15853851E-01  1.00000000E+00  1.00000000E+00  1.00000000E+00
  0.00000000E+00  0.00000000E+00  0.00000000E+00  0.00000000E+00  0.00000000E+00
  0.00000000E+00  0.00000000E+00  4.02486927E-02  2.37593957E-01  8.15853851E-01
  1.00000000E+00  1.00000000E+00  1.00000000E+00  0.00000000E+00  0.00000000E+00
  0.00000000E+00  0.00000000E+00  0.00000000E+00  0.00000000E+00  0.00000000E+00
  4.02486927E-02  2.37593957E-01  8.15853851E-01  1.00000000E+00  1.00000000E+00
  1.00000000E+00  0.00000000E+00  0.00000000E+00  0.00000000E+00  0.00000000E+00
  0.00000000E+00  0.00000000E+00  0.00000000E+00  4.02486927E-02  2.37593957E-01
  8.15853851E-01  1.00000000E+00  1.00000000E+00  1.00000000E+00  0.00000000E+00
  0.00000000E+00  0.00000000E+00  0.00000000E+00  0.00000000E+00  0.00000000E+00
  0.00000000E+00  4.02486927E-02  2.37593957E-01  8.15853851E-01  1.00000000E+00
  1.00000000E+00  1.00000000E+00  0.00000000E+00  0.00000000E+00  0.00000000E+00
  0.00000000E+00  0.00000000E+00  0.00000000E+00  0.00000000E+00  4.02486927E-02
  2.37593957E-01  8.15853851E-01  1.00000000E+00  1.00000000E+00  1.00000000E+00
  0.00000000E+00  0.00000000E+00  0.00000000E+00  0.00000000E+00  0.00000000E+00
  0.00000000E+00  0.00000000E+00  3.65113974E-02  2.37152983E-01  8.19701941E-01
  1.00000000E+00  1.00000000E+00  1.00000000E+00  0.00000000E+00  0.00000000E+00
  0.00000000E+00  0.00000000E+00  0.00000000E+00  0.00000000E+00  0.00000000E+00
  4.02486927E-02  2.37593957E-01  8.15853851E-01  1.00000000E+00  1.00000000E+00
  1.00000000E+00  0.00000000E+00  0.00000000E+00  0.00000000E+00  0.00000000E+00
  0.00000000E+00  0.00000000E+00  0.00000000E+00  0.00000000E+00  0.00000000E+00
  0.00000000E+00  0.00000000E+00  0.00000000E+00  0.00000000E+00  0.00000000E+00
  0.00000000E+00  0.00000000E+00  0.00000000E+00  0.00000000E+00  0.00000000E+00
  0.00000000E+00  0.00000000E+00  0.00000000E+00  0.00000000E+00  0.00000000E+00
  0.00000000E+00  0.00000000E+00  0.00000000E+00  0.00000000E+00  0.00000000E+00
  0.00000000E+00  0.00000000E+00  0.00000000E+00  0.00000000E+00  0.00000000E+00
  0.00000000E+00  0.00000000E+00  0.00000000E+00  0.00000000E+00  0.00000000E+00
  0.00000000E+00  0.00000000E+00  0.00000000E+00  0.00000000E+00  0.00000000E+00
  0.00000000E+00  0.00000000E+00  0.00000000E+00  0.00000000E+00  0.00000000E+00
  0.00000000E+00  0.00000000E+00  0.00000000E+00  0.00000000E+00  0.00000000E+00
  0.00000000E+00  0.00000000E+00  0.00000000E+00
Coordinates of each shell                  R   N=         282
 -3.71604644E+00 -2.14452816E+00  1.93106389E-05 -3.71604644E+00 -2.14452816E+00
  1.93106389E-05 -3.71604644E+00 -2.14452816E+00  1.93106389E-05 -3.71604644E+00
 -2.14452816E+00  1.93106389E-05 -3.71604644E+00 -2.14452816E+00  1.93106389E-05
 -3.71604644E+00 -2.14452816E+00  1.93106389E-05 -4.89515080E+00  2.16137797E-01
  9.86791365E-05 -4.89515080E+00  2.16137797E-01  9.86791365E-05 -4.89515080E+00
  2.16137797E-01  9.86791365E-05 -4.89515080E+00  2.16137797E-01  9.86791365E-05
 -4.89515080E+00  2.16137797E-01  9.86791365E-05 -4.89515080E+00  2.16137797E-01
  9.86791365E-05 -3.44160097E+00  2.41196233E+00  4.57668048E-05 -3.44160097E+00
  2.41196233E+00  4.57668048E-05 -3.44160097E+00  2.41196233E+00  4.57668048E-05
 -3.44160097E+00  2.41196233E+00  4.57668048E-05 -3.44160097E+00  2.41196233E+00
  4.57668048E-05 -3.44160097E+00  2.41196233E+00  4.57668048E-05 -8.13790668E-01
  2.25150486E+00 -6.76167632E-05 -8.13790668E-01  2.25150486E+00 -6.76167632E-05
 -8.13790668E-01  2.25150486E+00 -6.76167632E-05 -8.13790668E-01  2.25150486E+00
 -6.76167632E-05 -8.13790668E-01  2.25150486E+00 -6.76167632E-05 -8.13790668E-01
  2.25150486E+00 -6.76167632E-05  3.86291363E-01 -1.08640986E-01 -1.50764713E-04
  3.86291363E-01 -1.08640986E-01 -1.50764713E-04  3.86291363E-01 -1.08640986E-01
 -1.50764713E-04  3.86291363E-01 -1.08640986E-01 -1.50764713E-04  3.86291363E-01
 -1.08640986E-01 -1.50764713E-04  3.86291363E-01 -1.08640986E-01 -1.50764713E-04
 -1.09568464E+00 -2.30492013E+00 -1.07301012E-04 -1.09568464E+00 -2.30492013E+00
 -1.07301012E-04 -1.09568464E+00 -2.30492013E+00 -1.07301012E-04 -1.09568464E+00
 -2.30492013E+00 -1.07301012E-04 -1.09568464E+00 -2.30492013E+00 -1.07301012E-04
 -1.09568464E+00 -2.30492013E+00 -1.07301012E-04  3.21050078E+00 -3.86167675E-01
 -3.22729791E-04  3.21050078E+00 -3.86167675E-01 -3.22729791E-04  3.21050078E+00
 -3.86167675E-01 -3.22729791E-04  3.21050078E+00 -3.86167675E-01 -3.22729791E-04
  3.21050078E+00 -3.86167675E-01 -3.22729791E-04  3.21050078E+00 -3.86167675E-01
 -3.22729791E-04  4.18246677E+00 -2.46997116E+00  6.08255599E-06  4.18246677E+00
 -2.46997116E+00  6.08255599E-06  4.18246677E+00 -2.46997116E+00  6.08255599E-06
  4.18246677E+00 -2.46997116E+00  6.08255599E-06  4.18246677E+00 -2.46997116E+00
  6.08255599E-06  4.18246677E+00 -2.46997116E+00  6.08255599E-06  4.83506114E+00
  1.97710818E+00  2.66864762E-04  4.83506114E+00  1.97710818E+00  2.66864762E-04
  4.83506114E+00  1.97710818E+00  2.66864762E-04  4.83506114E+00  1.97710818E+00
  2.66864762E-04  4.83506114E+00  1.97710818E+00  2.66864762E-04  4.83506114E+00
  1.97710818E+00  2.66864762E-04 -1.45409847E-01 -4.11774897E+00 -1.81000331E-04
 -1.45409847E-01 -4.11774897E+00 -1.81000331E-04 -1.45409847E-01 -4.11774897E+00
 -1.81000331E-04 -1.45409847E-01 -4.11774897E+00 -1.81000331E-04 -1.45409847E-01
 -4.11774897E+00 -1.81000331E-04 -4.84543767E+00 -3.85391676E+00  5.52154354E-05
 -4.84543767E+00 -3.85391676E+00  5.52154354E-05 -4.84543767E+00 -3.85391676E+00
  5.52154354E-05 -4.84543767E+00 -3.85391676E+00  5.52154354E-05 -4.84543767E+00
 -3.85391676E+00  5.52154354E-05 -6.94042710E+00  3.41798689E-01  1.93165443E-04
 -6.94042710E+00  3.41798689E-01  1.93165443E-04 -6.94042710E+00  3.41798689E-01
  1.93165443E-04 -6.94042710E+00  3.41798689E-01  1.93165443E-04 -6.94042710E+00
  3.41798689E-01  1.93165443E-04 -4.35217714E+00  4.24705508E+00  9.86791365E-05
 -4.35217714E+00  4.24705508E+00  9.86791365E-05 -4.35217714E+00  4.24705508E+00
  9.86791365E-05 -4.35217714E+00  4.24705508E+00  9.86791365E-05 -4.35217714E+00
  4.24705508E+00  9.86791365E-05  2.90204296E-01  3.97520466E+00 -1.11080464E-04
  2.90204296E-01  3.97520466E+00 -1.11080464E-04  2.90204296E-01  3.97520466E+00
 -1.11080464E-04  2.90204296E-01  3.97520466E+00 -1.11080464E-04  2.90204296E-01
  3.97520466E+00 -1.11080464E-04  6.81467897E+00  1.41745768E+00  5.29536695E-04
  6.81467897E+00  1.41745768E+00  5.29536695E-04  6.81467897E+00  1.41745768E+00
  5.29536695E-04  6.81467897E+00  1.41745768E+00  5.29536695E-04  6.81467897E+00
  1.41745768E+00  5.29536695E-04  4.45095856E+00  3.13778268E+00 -1.66668134E+00
  4.45095856E+00  3.13778268E+00 -1.66668134E+00  4.45095856E+00  3.13778268E+00
 -1.66668134E+00  4.45095856E+00  3.13778268E+00 -1.66668134E+00  4.45095856E+00
  3.13778268E+00 -1.66668134E+00  4.45039716E+00  3.13739888E+00  1.66735491E+00
  4.45039716E+00  3.13739888E+00  1.66735491E+00  4.45039716E+00  3.13739888E+00
  1.66735491E+00  4.45039716E+00  3.13739888E+00  1.66735491E+00  4.45039716E+00
  3.13739888E+00  1.66735491E+00
Constraint Structure                       R   N=          51
 -3.71604644E+00 -2.14452816E+00  1.93106389E-05 -4.89515080E+00  2.16137797E-01
  9.86791365E-05 -3.44160097E+00  2.41196233E+00  4.57668048E-05 -8.13790668E-01
  2.25150486E+00 -6.76167632E-05  3.86291363E-01 -1.08640986E-01 -1.50764713E-04
 -1.09568464E+00 -2.30492013E+00 -1.07301012E-04  3.21050078E+00 -3.86167675E-01
 -3.22729791E-04  4.18246677E+00 -2.46997116E+00  6.08255599E-06  4.83506114E+00
  1.97710818E+00  2.66864762E-04 -1.45409847E-01 -4.11774897E+00 -1.81000331E-04
 -4.84543767E+00 -3.85391676E+00  5.52154354E-05 -6.94042710E+00  3.41798689E-01
  1.93165443E-04 -4.35217714E+00  4.24705508E+00  9.86791365E-05  2.90204296E-01
  3.97520466E+00 -1.11080464E-04  6.81467897E+00  1.41745768E+00  5.29536695E-04
  4.45095856E+00  3.13778268E+00 -1.66668134E+00  4.45039716E+00  3.13739888E+00
  1.66735491E+00
Num ILSW                                   I              100
ILSW                                       I   N=         100
           0           0           0           0           2           0
           0           0           0           0           0          -1
           0           0           0           0           0           0
           0           0           0           0           0           0
           1           0           0           0           0           0
           0           0      100000           0          -1           0
           0           0           0           0           0           0
           0           0           0           1           0           0
           0           0           1           0           0           0
           0           0           4          40           0           0
           0           0           0           0           0           0
           0           0           0           0           0           0
           0           0           0           0           0           0
           0           0           0           0           0           0
           0           0           0           0           0           0
           0           0           0           0           0           0
           0           0           0           0
Num RLSW                                   I               40
RLSW                                       R   N=          40
  1.00000000E+00  1.00000000E+00  1.00000000E+00  1.00000000E+00  1.00000000E+00
  0.00000000E+00  0.00000000E+00  1.00000000E+00  0.00000000E+00  0.00000000E+00
  0.00000000E+00  0.00000000E+00  1.00000000E+00  0.00000000E+00  0.00000000E+00
  0.00000000E+00  0.00000000E+00  1.00000000E+00  0.00000000E+00  0.00000000E+00
  0.00000000E+00  0.00000000E+00  1.00000000E+00  0.00000000E+00  0.00000000E+00
  0.00000000E+00  0.00000000E+00  1.00000000E+00  0.00000000E+00  0.00000000E+00
  0.00000000E+00  0.00000000E+00  0.00000000E+00  0.00000000E+00  0.00000000E+00
  0.00000000E+00  0.00000000E+00  0.00000000E+00  1.00000000E+00  1.00000000E+00
MxBond                                     I                4
NBond                                      I   N=          17
           3           3           3           3           3           3
           3           1           4           1           1           1
           1           1           1           1           1
IBond                                      I   N=          68
           2           6          11           0           1           3
          12           0           2           4          13           0
           3           5          14           0           4           6
           7           0           1           5          10           0
           5           8           9           0           7           0
           0           0           7          15          16          17
           6           0           0           0           1           0
           0           0           2           0           0           0
           3           0           0           0           4           0
           0           0           9           0           0           0
           9           0           0           0           9           0
           0           0
RBond                                      R   N=          68
  1.50000000E+00  1.50000000E+00  1.00000000E+00  0.00000000E+00  1.50000000E+00
  1.50000000E+00  1.00000000E+00  0.00000000E+00  1.50000000E+00  1.50000000E+00
  1.00000000E+00  0.00000000E+00  1.50000000E+00  1.50000000E+00  1.00000000E+00
  0.00000000E+00  1.50000000E+00  1.50000000E+00  1.00000000E+00  0.00000000E+00
  1.50000000E+00  1.50000000E+00  1.00000000E+00  0.00000000E+00  1.00000000E+00
  2.00000000E+00  1.00000000E+00  0.00000000E+00  2.00000000E+00  0.00000000E+00
  0.00000000E+00  0.00000000E+00  1.00000000E+00  1.00000000E+00  1.00000000E+00
  1.00000000E+00  1.00000000E+00  0.00000000E+00  0.00000000E+00  0.00000000E+00
  1.00000000E+00  0.00000000E+00  0.00000000E+00  0.00000000E+00  1.00000000E+00
  0.00000000E+00  0.00000000E+00  0.00000000E+00  1.00000000E+00  0.00000000E+00
  0.00000000E+00  0.00000000E+00  1.00000000E+00  0.00000000E+00  0.00000000E+00
  0.00000000E+00  1.00000000E+00  0.00000000E+00  0.00000000E+00  0.00000000E+00
  1.00000000E+00  0.00000000E+00  0.00000000E+00  0.00000000E+00  1.00000000E+00
  0.00000000E+00  0.00000000E+00  0.00000000E+00
Virial Ratio                               R      2.001262527931696E+00
SCF Energy                                 R     -3.825662471076774E+02
MP2 Energy                                 R     -3.838703901426522E+02
Total Energy                               R     -3.838703901426522E+02
Post-SCF wavefunction norm                 R      1.206569077169343E+00
RMS Density                                R      6.918656118645191E-09
External E-field                           R   N=          35
  0.00000000E+00  0.00000000E+00  0.00000000E+00  0.00000000E+00  0.00000000E+00
  0.00000000E+00  0.00000000E+00  0.00000000E+00  0.00000000E+00  0.00000000E+00
  0.00000000E+00  0.00000000E+00  0.00000000E+00  0.00000000E+00  0.00000000E+00
  0.00000000E+00  0.00000000E+00  0.00000000E+00  0.00000000E+00  0.00000000E+00
  0.00000000E+00  0.00000000E+00  0.00000000E+00  0.00000000E+00  0.00000000E+00
  0.00000000E+00  0.00000000E+00  0.00000000E+00  0.00000000E+00  0.00000000E+00
  0.00000000E+00  0.00000000E+00  0.00000000E+00  0.00000000E+00  0.00000000E+00
IOpCl                                      I                0
IROHF                                      I                0
Alpha Orbital Energies                     R   N=         253
 -2.05459566E+01 -1.13403500E+01 -1.12588913E+01 -1.12559277E+01 -1.12536614E+01
 -1.12501733E+01 -1.12498497E+01 -1.12472538E+01 -1.12381191E+01 -1.38948502E+00
 -1.16944308E+00 -1.05505913E+00 -1.03135332E+00 -9.99071356E-01 -8.67316144E-01
 -8.39655883E-01 -7.64759388E-01 -7.13116649E-01 -6.58195974E-01 -6.52105734E-01