Bla-0.05                                                                
SP        RMP2-FC                                                     6-311++G(d,p)       
Number of atoms                            I               12
Info1-9                                    I   N=           9
          23          21           0           0           0         110
           1           2           1
Charge                                     I                0
Multiplicity                               I                1
Number of electrons                        I               42
Number of alpha electrons                  I               21
Number of beta electrons                   I               21
Number of basis functions                  I              174
Number of independent functions            I              174
Number of point charges in /Mol/           I                0
Number of translation vectors              I                0
Atomic numbers                             I   N=          12
           6           6           6           6           6           6
           1           1           1           1           1           1
Nuclear charges                            R   N=          12
  6.00000000E+00  6.00000000E+00  6.00000000E+00  6.00000000E+00  6.00000000E+00
  6.00000000E+00  1.00000000E+00  1.00000000E+00  1.00000000E+00  1.00000000E+00
  1.00000000E+00  1.00000000E+00
Current cartesian coordinates              R   N=          36
  1.29414493E+00  2.29607583E+00  0.00000000E+00  2.63553246E+00 -2.72755297E-02
 -1.64272595E-16  1.34138754E+00 -2.26880030E+00  0.00000000E+00 -1.34138753E+00
 -2.26880030E+00  3.22759640E-16 -2.63553246E+00 -2.72755335E-02  0.00000000E+00
 -1.29414493E+00  2.29607583E+00 -1.58487044E-16  2.31877711E+00  4.07079323E+00
  0.00000000E+00  4.68479891E+00 -2.72767245E-02 -2.89754102E-16  2.36602180E+00
 -4.04351650E+00  0.00000000E+00 -2.36602179E+00 -4.04351651E+00  5.73722399E-16
 -4.68479891E+00 -2.72767311E-02  0.00000000E+00 -2.31877712E+00  4.07079323E+00
 -2.83968297E-16
Force Field                                I                0
Int Atom Types                             I   N=          12
           0           0           0           0           0           0
           0           0           0           0           0           0
MM charges                                 R   N=          12
  0.00000000E+00  0.00000000E+00  0.00000000E+00  0.00000000E+00  0.00000000E+00
  0.00000000E+00  0.00000000E+00  0.00000000E+00  0.00000000E+00  0.00000000E+00
  0.00000000E+00  0.00000000E+00
Integer atomic weights                     I   N=          12
          12          12          12          12          12          12
           1           1           1           1           1           1
Real atomic weights                        R   N=          12
  1.20000000E+01  1.20000000E+01  1.20000000E+01  1.20000000E+01  1.20000000E+01
  1.20000000E+01  1.00782504E+00  1.00782504E+00  1.00782504E+00  1.00782504E+00
  1.00782504E+00  1.00782504E+00
Atom fragment info                         I   N=          12
           0           0           0           0           0           0
           0           0           0           0           0           0
Atom residue num                           I   N=          12
           0           0           0           0           0           0
           0           0           0           0           0           0
Nuclear spins                              I   N=          12
           0           0           0           0           0           0
           1           1           1           1           1           1
Nuclear ZEff                               R   N=          12
 -3.60000000E+00 -3.60000000E+00 -3.60000000E+00 -3.60000000E+00 -3.60000000E+00
 -3.60000000E+00 -1.00000000E+00 -1.00000000E+00 -1.00000000E+00 -1.00000000E+00
 -1.00000000E+00 -1.00000000E+00
Nuclear QMom                               R   N=          12
  0.00000000E+00  0.00000000E+00  0.00000000E+00  0.00000000E+00  0.00000000E+00
  0.00000000E+00  0.00000000E+00  0.00000000E+00  0.00000000E+00  0.00000000E+00
  0.00000000E+00  0.00000000E+00
Nuclear GFac                               R   N=          12
  0.00000000E+00  0.00000000E+00  0.00000000E+00  0.00000000E+00  0.00000000E+00
  0.00000000E+00  2.79284600E+00  2.79284600E+00  2.79284600E+00  2.79284600E+00
  2.79284600E+00  2.79284600E+00
MicOpt                                     I   N=          12
          -1          -1          -1          -1          -1          -1
          -1          -1          -1          -1          -1          -1
Number of contracted shells                I               66
Number of primitive shells                 I              120
Pure/Cartesian d shells                    I                0
Pure/Cartesian f shells                    I                0
Highest angular momentum                   I                2
Largest degree of contraction              I                6
Shell types                                I   N=          66
           0          -1          -1          -1          -1          -2
           0          -1          -1          -1          -1          -2
           0          -1          -1          -1          -1          -2
           0          -1          -1          -1          -1          -2
           0          -1          -1          -1          -1          -2
           0          -1          -1          -1          -1          -2
           0           0           0           0           1           0
           0           0           0           1           0           0
           0           0           1           0           0           0
           0           1           0           0           0           0
           1           0           0           0           0           1
Number of primitives per shell             I   N=          66
           6           3           1           1           1           1
           6           3           1           1           1           1
           6           3           1           1           1           1
           6           3           1           1           1           1
           6           3           1           1           1           1
           6           3           1           1           1           1
           3           1           1           1           1           3
           1           1           1           1           3           1
           1           1           1           3           1           1
           1           1           3           1           1           1
           1           3           1           1           1           1
Shell to atom map                          I   N=          66
           1           1           1           1           1           1
           2           2           2           2           2           2
           3           3           3           3           3           3
           4           4           4           4           4           4
           5           5           5           5           5           5
           6           6           6           6           6           6
           7           7           7           7           7           8
           8           8           8           8           9           9
           9           9           9          10          10          10
          10          10          11          11          11          11
          11          12          12          12          12          12
Primitive exponents                        R   N=         120
  4.56324000E+03  6.82024000E+02  1.54973000E+02  4.44553000E+01  1.30290000E+01
  1.82773000E+00  2.09642000E+01  4.80331000E+00  1.45933000E+00  4.83456000E-01
  1.45585000E-01  4.38000000E-02  6.26000000E-01  4.56324000E+03  6.82024000E+02
  1.54973000E+02  4.44553000E+01  1.30290000E+01  1.82773000E+00  2.09642000E+01
  4.80331000E+00  1.45933000E+00  4.83456000E-01  1.45585000E-01  4.38000000E-02
  6.26000000E-01  4.56324000E+03  6.82024000E+02  1.54973000E+02  4.44553000E+01
  1.30290000E+01  1.82773000E+00  2.09642000E+01  4.80331000E+00  1.45933000E+00
  4.83456000E-01  1.45585000E-01  4.38000000E-02  6.26000000E-01  4.56324000E+03
  6.82024000E+02  1.54973000E+02  4.44553000E+01  1.30290000E+01  1.82773000E+00
  2.09642000E+01  4.80331000E+00  1.45933000E+00  4.83456000E-01  1.45585000E-01
  4.38000000E-02  6.26000000E-01  4.56324000E+03  6.82024000E+02  1.54973000E+02
  4.44553000E+01  1.30290000E+01  1.82773000E+00  2.09642000E+01  4.80331000E+00
  1.45933000E+00  4.83456000E-01  1.45585000E-01  4.38000000E-02  6.26000000E-01
  4.56324000E+03  6.82024000E+02  1.54973000E+02  4.44553000E+01  1.30290000E+01
  1.82773000E+00  2.09642000E+01  4.80331000E+00  1.45933000E+00  4.83456000E-01
  1.45585000E-01  4.38000000E-02  6.26000000E-01  3.38650000E+01  5.09479000E+00
  1.15879000E+00  3.25840000E-01  1.02741000E-01  3.60000000E-02  7.50000000E-01
  3.38650000E+01  5.09479000E+00  1.15879000E+00  3.25840000E-01  1.02741000E-01
  3.60000000E-02  7.50000000E-01  3.38650000E+01  5.09479000E+00  1.15879000E+00
  3.25840000E-01  1.02741000E-01  3.60000000E-02  7.50000000E-01  3.38650000E+01
  5.09479000E+00  1.15879000E+00  3.25840000E-01  1.02741000E-01  3.60000000E-02
  7.50000000E-01  3.38650000E+01  5.09479000E+00  1.15879000E+00  3.25840000E-01
  1.02741000E-01  3.60000000E-02  7.50000000E-01  3.38650000E+01  5.09479000E+00
  1.15879000E+00  3.25840000E-01  1.02741000E-01  3.60000000E-02  7.50000000E-01
Contraction coefficients                   R   N=         120
  1.96665025E-03  1.52306019E-02  7.61269097E-02  2.60801033E-01  6.16462078E-01
  2.21006028E-01  1.14660081E-01  9.19999648E-01 -3.03068213E-03  1.00000000E+00
  1.00000000E+00  1.00000000E+00  1.00000000E+00  1.96665025E-03  1.52306019E-02
  7.61269097E-02  2.60801033E-01  6.16462078E-01  2.21006028E-01  1.14660081E-01
  9.19999648E-01 -3.03068213E-03  1.00000000E+00  1.00000000E+00  1.00000000E+00
  1.00000000E+00  1.96665025E-03  1.52306019E-02  7.61269097E-02  2.60801033E-01
  6.16462078E-01  2.21006028E-01  1.14660081E-01  9.19999648E-01 -3.03068213E-03
  1.00000000E+00  1.00000000E+00  1.00000000E+00  1.00000000E+00  1.96665025E-03
  1.52306019E-02  7.61269097E-02  2.60801033E-01  6.16462078E-01  2.21006028E-01
  1.14660081E-01  9.19999648E-01 -3.03068213E-03  1.00000000E+00  1.00000000E+00
  1.00000000E+00  1.00000000E+00  1.96665025E-03  1.52306019E-02  7.61269097E-02
  2.60801033E-01  6.16462078E-01  2.21006028E-01  1.14660081E-01  9.19999648E-01
 -3.03068213E-03  1.00000000E+00  1.00000000E+00  1.00000000E+00  1.00000000E+00
  1.96665025E-03  1.52306019E-02  7.61269097E-02  2.60801033E-01  6.16462078E-01
  2.21006028E-01  1.14660081E-01  9.19999648E-01 -3.03068213E-03  1.00000000E+00
  1.00000000E+00  1.00000000E+00  1.00000000E+00  2.54938145E-02  1.90373109E-01
  8.52161486E-01  1.00000000E+00  1.00000000E+00  1.00000000E+00  1.00000000E+00
  2.54938145E-02  1.90373109E-01  8.52161486E-01  1.00000000E+00  1.00000000E+00
  1.00000000E+00  1.00000000E+00  2.54938145E-02  1.90373109E-01  8.52161486E-01
  1.00000000E+00  1.00000000E+00  1.00000000E+00  1.00000000E+00  2.54938145E-02
  1.90373109E-01  8.52161486E-01  1.00000000E+00  1.00000000E+00  1.00000000E+00
  1.00000000E+00  2.54938145E-02  1.90373109E-01  8.52161486E-01  1.00000000E+00
  1.00000000E+00  1.00000000E+00  1.00000000E+00  2.54938145E-02  1.90373109E-01
  8.52161486E-01  1.00000000E+00  1.00000000E+00  1.00000000E+00  1.00000000E+00
P(S=P) Contraction coefficients            R   N=         120
  0.00000000E+00  0.00000000E+00  0.00000000E+00  0.00000000E+00  0.00000000E+00
  0.00000000E+00  4.02486927E-02  2.37593957E-01  8.15853851E-01  1.00000000E+00
  1.00000000E+00  1.00000000E+00  0.00000000E+00  0.00000000E+00  0.00000000E+00
  0.00000000E+00  0.00000000E+00  0.00000000E+00  0.00000000E+00  4.02486927E-02
  2.37593957E-01  8.15853851E-01  1.00000000E+00  1.00000000E+00  1.00000000E+00
  0.00000000E+00  0.00000000E+00  0.00000000E+00  0.00000000E+00  0.00000000E+00
  0.00000000E+00  0.00000000E+00  4.02486927E-02  2.37593957E-01  8.15853851E-01
  1.00000000E+00  1.00000000E+00  1.00000000E+00  0.00000000E+00  0.00000000E+00
  0.00000000E+00  0.00000000E+00  0.00000000E+00  0.00000000E+00  0.00000000E+00
  4.02486927E-02  2.37593957E-01  8.15853851E-01  1.00000000E+00  1.00000000E+00
  1.00000000E+00  0.00000000E+00  0.00000000E+00  0.00000000E+00  0.00000000E+00
  0.00000000E+00  0.00000000E+00  0.00000000E+00  4.02486927E-02  2.37593957E-01
  8.15853851E-01  1.00000000E+00  1.00000000E+00  1.00000000E+00  0.00000000E+00
  0.00000000E+00  0.00000000E+00  0.00000000E+00  0.00000000E+00  0.00000000E+00
  0.00000000E+00  4.02486927E-02  2.37593957E-01  8.15853851E-01  1.00000000E+00
  1.00000000E+00  1.00000000E+00  0.00000000E+00  0.00000000E+00  0.00000000E+00
  0.00000000E+00  0.00000000E+00  0.00000000E+00  0.00000000E+00  0.00000000E+00
  0.00000000E+00  0.00000000E+00  0.00000000E+00  0.00000000E+00  0.00000000E+00
  0.00000000E+00  0.00000000E+00  0.00000000E+00  0.00000000E+00  0.00000000E+00
  0.00000000E+00  0.00000000E+00  0.00000000E+00  0.00000000E+00  0.00000000E+00
  0.00000000E+00  0.00000000E+00  0.00000000E+00  0.00000000E+00  0.00000000E+00
  0.00000000E+00  0.00000000E+00  0.00000000E+00  0.00000000E+00  0.00000000E+00
  0.00000000E+00  0.00000000E+00  0.00000000E+00  0.00000000E+00  0.00000000E+00
  0.00000000E+00  0.00000000E+00  0.00000000E+00  0.00000000E+00  0.00000000E+00
Coordinates of each shell                  R   N=         198
  1.29414493E+00  2.29607583E+00  0.00000000E+00  1.29414493E+00  2.29607583E+00
  0.00000000E+00  1.29414493E+00  2.29607583E+00  0.00000000E+00  1.29414493E+00
  2.29607583E+00  0.00000000E+00  1.29414493E+00  2.29607583E+00  0.00000000E+00
  1.29414493E+00  2.29607583E+00  0.00000000E+00  2.63553246E+00 -2.72755316E-02
 -1.64272595E-16  2.63553246E+00 -2.72755316E-02 -1.64272595E-16  2.63553246E+00
 -2.72755316E-02 -1.64272595E-16  2.63553246E+00 -2.72755316E-02 -1.64272595E-16
  2.63553246E+00 -2.72755316E-02 -1.64272595E-16  2.63553246E+00 -2.72755316E-02
 -1.64272595E-16  1.34138754E+00 -2.26880030E+00  0.00000000E+00  1.34138754E+00
 -2.26880030E+00  0.00000000E+00  1.34138754E+00 -2.26880030E+00  0.00000000E+00
  1.34138754E+00 -2.26880030E+00  0.00000000E+00  1.34138754E+00 -2.26880030E+00
  0.00000000E+00  1.34138754E+00 -2.26880030E+00  0.00000000E+00 -1.34138754E+00
 -2.26880030E+00  3.22759640E-16 -1.34138754E+00 -2.26880030E+00  3.22759640E-16
 -1.34138754E+00 -2.26880030E+00  3.22759640E-16 -1.34138754E+00 -2.26880030E+00
  3.22759640E-16 -1.34138754E+00 -2.26880030E+00  3.22759640E-16 -1.34138754E+00
 -2.26880030E+00  3.22759640E-16 -2.63553246E+00 -2.72755316E-02  0.00000000E+00
 -2.63553246E+00 -2.72755316E-02  0.00000000E+00 -2.63553246E+00 -2.72755316E-02
  0.00000000E+00 -2.63553246E+00 -2.72755316E-02  0.00000000E+00 -2.63553246E+00
 -2.72755316E-02  0.00000000E+00 -2.63553246E+00 -2.72755316E-02  0.00000000E+00
 -1.29414493E+00  2.29607583E+00 -1.58487044E-16 -1.29414493E+00  2.29607583E+00
 -1.58487044E-16 -1.29414493E+00  2.29607583E+00 -1.58487044E-16 -1.29414493E+00
  2.29607583E+00 -1.58487044E-16 -1.29414493E+00  2.29607583E+00 -1.58487044E-16
 -1.29414493E+00  2.29607583E+00 -1.58487044E-16  2.31877712E+00  4.07079323E+00
  0.00000000E+00  2.31877712E+00  4.07079323E+00  0.00000000E+00  2.31877712E+00
  4.07079323E+00  0.00000000E+00  2.31877712E+00  4.07079323E+00  0.00000000E+00
  2.31877712E+00  4.07079323E+00  0.00000000E+00  4.68479891E+00 -2.72767278E-02
 -2.89754102E-16  4.68479891E+00 -2.72767278E-02 -2.89754102E-16  4.68479891E+00
 -2.72767278E-02 -2.89754102E-16  4.68479891E+00 -2.72767278E-02 -2.89754102E-16
  4.68479891E+00 -2.72767278E-02 -2.89754102E-16  2.36602179E+00 -4.04351650E+00
  0.00000000E+00  2.36602179E+00 -4.04351650E+00  0.00000000E+00  2.36602179E+00
 -4.04351650E+00  0.00000000E+00  2.36602179E+00 -4.04351650E+00  0.00000000E+00
  2.36602179E+00 -4.04351650E+00  0.00000000E+00 -2.36602179E+00 -4.04351650E+00
  5.73722399E-16 -2.36602179E+00 -4.04351650E+00  5.73722399E-16 -2.36602179E+00
 -4.04351650E+00  5.73722399E-16 -2.36602179E+00 -4.04351650E+00  5.73722399E-16
 -2.36602179E+00 -4.04351650E+00  5.73722399E-16 -4.68479891E+00 -2.72767278E-02
  0.00000000E+00 -4.68479891E+00 -2.72767278E-02  0.00000000E+00 -4.68479891E+00
 -2.72767278E-02  0.00000000E+00 -4.68479891E+00 -2.72767278E-02  0.00000000E+00
 -4.68479891E+00 -2.72767278E-02  0.00000000E+00 -2.31877712E+00  4.07079323E+00
 -2.83968297E-16 -2.31877712E+00  4.07079323E+00 -2.83968297E-16 -2.31877712E+00
  4.07079323E+00 -2.83968297E-16 -2.31877712E+00  4.07079323E+00 -2.83968297E-16
 -2.31877712E+00  4.07079323E+00 -2.83968297E-16
Constraint Structure                       R   N=          36
  1.29414493E+00  2.29607583E+00  0.00000000E+00  2.63553246E+00 -2.72755316E-02
 -1.64272595E-16  1.34138754E+00 -2.26880030E+00  0.00000000E+00 -1.34138754E+00
 -2.26880030E+00  3.22759640E-16 -2.63553246E+00 -2.72755316E-02  0.00000000E+00
 -1.29414493E+00  2.29607583E+00 -1.58487044E-16  2.31877712E+00  4.07079323E+00
  0.00000000E+00  4.68479891E+00 -2.72767278E-02 -2.89754102E-16  2.36602179E+00
 -4.04351650E+00  0.00000000E+00 -2.36602179E+00 -4.04351650E+00  5.73722399E-16
 -4.68479891E+00 -2.72767278E-02  0.00000000E+00 -2.31877712E+00  4.07079323E+00
 -2.83968297E-16
Num ILSW                                   I              100
ILSW                                       I   N=         100
           0           0           0           0           2           0
           0           0           0           0           0          -1
           0           0           0           0           0           0
           0           0           0           0           0           0
           1           0           0           0           0           0
           0           0      100000           0          -1           0
           0           0           0           0           0           0
           0           0           0           1           0           0
           0           0           1           0           0           0
           0           0           4          40           0           0
           0           0           0           0           0           0
           0           0           0           0           0           0
           0           0           0           0           0           0
           0           0           0           0           0           0
           0           0           0           0           0           0
           0           0           0           0           0           0
           0           0           0           0
Num RLSW                                   I               40
RLSW                                       R   N=          40
  1.00000000E+00  1.00000000E+00  1.00000000E+00  1.00000000E+00  1.00000000E+00
  0.00000000E+00  0.00000000E+00  1.00000000E+00  0.00000000E+00  0.00000000E+00
  0.00000000E+00  0.00000000E+00  1.00000000E+00  0.00000000E+00  0.00000000E+00
  0.00000000E+00  0.00000000E+00  1.00000000E+00  0.00000000E+00  0.00000000E+00
  0.00000000E+00  0.00000000E+00  1.00000000E+00  0.00000000E+00  0.00000000E+00
  0.00000000E+00  0.00000000E+00  1.00000000E+00  0.00000000E+00  0.00000000E+00
  0.00000000E+00  0.00000000E+00  0.00000000E+00  0.00000000E+00  0.00000000E+00
  0.00000000E+00  0.00000000E+00  0.00000000E+00  1.00000000E+00  1.00000000E+00
MxBond                                     I                3
NBond                                      I   N=          12
           3           3           3           3           3           3
           1           1           1           1           1           1
IBond                                      I   N=          36
           2           6           7           1           3           8
           2           4           9           3           5          10
           4           6          11           1           5          12
           1           0           0           2           0           0
           3           0           0           4           0           0
           5           0           0           6           0           0
RBond                                      R   N=          36
  1.50000000E+00  2.00000000E+00  1.00000000E+00  1.50000000E+00  2.00000000E+00
  1.00000000E+00  2.00000000E+00  1.50000000E+00  1.00000000E+00  1.50000000E+00
  2.00000000E+00  1.00000000E+00  2.00000000E+00  1.50000000E+00  1.00000000E+00
  2.00000000E+00  1.50000000E+00  1.00000000E+00  1.00000000E+00  0.00000000E+00
  0.00000000E+00  1.00000000E+00  0.00000000E+00  0.00000000E+00  1.00000000E+00
  0.00000000E+00  0.00000000E+00  1.00000000E+00  0.00000000E+00  0.00000000E+00
  1.00000000E+00  0.00000000E+00  0.00000000E+00  1.00000000E+00  0.00000000E+00
  0.00000000E+00
Virial Ratio                               R      2.001210410398782E+00
SCF Energy                                 R     -2.307546185632158E+02
MP2 Energy                                 R     -2.315818250346881E+02
Total Energy                               R     -2.315818250346881E+02
Post-SCF wavefunction norm                 R      1.142968542882471E+00
RMS Density                                R      3.199403420245058E-09
External E-field                           R   N=          35
  0.00000000E+00  0.00000000E+00  0.00000000E+00  0.00000000E+00  0.00000000E+00
  0.00000000E+00  0.00000000E+00  0.00000000E+00  0.00000000E+00  0.00000000E+00
  0.00000000E+00  0.00000000E+00  0.00000000E+00  0.00000000E+00  0.00000000E+00
  0.00000000E+00  0.00000000E+00  0.00000000E+00  0.00000000E+00  0.00000000E+00
  0.00000000E+00  0.00000000E+00  0.00000000E+00  0.00000000E+00  0.00000000E+00
  0.00000000E+00  0.00000000E+00  0.00000000E+00  0.00000000E+00  0.00000000E+00
  0.00000000E+00  0.00000000E+00  0.00000000E+00  0.00000000E+00  0.00000000E+00
IOpCl                                      I                0
IROHF                                      I                0
Alpha Orbital Energies                     R   N=         174
 -1.12386764E+01 -1.12381148E+01 -1.12381148E+01 -1.12368427E+01 -1.12368427E+01
 -1.12362480E+01 -1.15224139E+00 -1.01693809E+00 -1.01693809E+00 -8.24517401E-01
 -8.24517401E-01 -7.10581152E-01 -6.44205047E-01 -6.20597483E-01 -5.89889416E-01
 -5.89889416E-01 -5.02033484E-01 -4.95173200E-01 -4.95173200E-01 -3.37956379E-01
 -3.37956379E-01  4.21292084E-02  4.89667935E-02  4.89667935E-02  6.62642638E-02
  6.62642638E-02  8.80817263E-02  1.09688214E-01  1.09688214E-01  1.29302112E-01
  1.52684096E-01  1.52684096E-01  1.58028214E-01  1.62841321E-01  1.81074774E-01
  1.81074774E-01  1.83429481E-01  1.83429481E-01  1.92523923E-01  2.09214013E-01
  2.12273670E-01  2.12273670E-01  2.16535561E-01  2.16535561E-01  2.17147115E-01
  2.28195377E-01  2.28195377E-01  2.50349069E-01  2.50349069E-01  2.88947170E-01
  2.88947170E-01  3.03078663E-01  3.33125712E-01  3.34236425E-01  3.68709636E-01
  4.07682201E-01  4.07682201E-01  4.29414635E-01  4.29414635E-01  4.39598751E-01
  4.96054011E-01  4.96054011E-01  5.11149631E-01  5.11149631E-01  6.02014867E-01
  6.11280648E-01  7.14972688E-01  7.21450165E-01  7.21450165E-01  7.23560094E-01
  7.51761164E-01  7.51761164E-01  7.54938507E-01  7.57354226E-01  7.57354226E-01
  7.96942253E-01  8.20079658E-01  8.20079658E-01  8.86157659E-01  9.31522686E-01
  9.31522686E-01  9.60254064E-01  9.60254064E-01  9.75342116E-01  1.01607696E+00
  1.01607696E+00  1.01776371E+00  1.05944035E+00  1.05944035E+00  1.09819783E+00
  1.12144048E+00  1.12144048E+00  1.13881227E+00  1.16842111E+00  1.21755501E+00
  1.21755501E+00  1.25132698E+00  1.32303153E+00  1.32303153E+00  1.39193534E+00
  1.39193534E+00  1.52284014E+00  1.55566271E+00  1.70791240E+00  1.78535410E+00
  1.78535410E+00  1.79914361E+00  1.82536665E+00  1.84381347E+00  1.84381347E+00
  1.90251027E+00  1.90251027E+00  1.93670647E+00  1.93670647E+00  1.98995601E+00
  2.05440078E+00  2.05440078E+00  2.10351556E+00  2.10351556E+00  2.12864159E+00
  2.23656823E+00  2.23656823E+00  2.23902086E+00  2.24611111E+00  2.24611111E+00
  2.29643547E+00  2.34914766E+00  2.34914766E+00  2.37821349E+00  2.37821349E+00
  2.63747269E+00  2.66215361E+00  2.74014757E+00  2.74014757E+00  2.74271038E+00
  2.81466101E+00  2.81466101E+00  2.95837275E+00  2.95837275E+00  2.98844218E+00
  2.99407403E+00  3.02106167E+00  3.02106167E+00  3.04740150E+00  3.04740150E+00
  3.05821084E+00  3.08977189E+00  3.19129362E+00  3.19129362E+00  3.26349438E+00
  3.29323588E+00  3.29323588E+00  3.32504732E+00  3.32504732E+00  3.48100495E+00
  3.54197887E+00  3.76373632E+00  3.76373632E+00  3.91654416E+00  3.91654416E+00
  3.92441164E+00  4.07414737E+00  4.40389127E+00  4.40389127E+00  4.49449313E+00
  4.57079893E+00  4.57079893E+00  5.27143763E+00  2.47458843E+01  2.50977396E+01
  2.50977396E+01  2.53010572E+01  2.53010572E+01  2.53803301E+01
Alpha MO coefficients                      R   N=       30276
  2.29906651E-01  1.90360361E-01 -6.30876355E-07 -3.61562847E-05  0.00000000E+00
  2.02932802E-03 -1.17850880E-04 -1.44924627E-04  0.00000000E+00 -3.94200608E-04
  9.20057729E-06  8.85399134E-06  0.00000000E+00 -9.81339099E-05 -1.01279467E-04
 -1.67982742E-04  0.00000000E+00 -1.16993381E-04  0.00000000E+00  0.00000000E+00
  5.41351882E-05 -4.46612894E-05  2.29906651E-01  1.90360361E-01 -3.16276992E-05
  1.75317874E-05  0.00000000E+00  2.02932802E-03 -1.84433848E-04 -2.95995421E-05
  0.00000000E+00 -3.94200607E-04  1.22680706E-05  3.54093775E-06  0.00000000E+00
 -9.81339238E-05 -1.96117049E-04 -3.71921702E-06  0.00000000E+00 -1.16993381E-04
  0.00000000E+00  0.00000000E+00 -6.57454053E-05  2.45518035E-05  2.29906651E-01
  1.90360361E-01 -3.09968229E-05  1.86244973E-05  0.00000000E+00  2.02932802E-03
 -6.65829688E-05  1.74524169E-04  0.00000000E+00 -3.94200608E-04  3.06749278E-06
 -1.23949294E-05  0.00000000E+00 -9.81339012E-05 -9.48375868E-05  1.71701962E-04
  0.00000000E+00 -1.16993381E-04  0.00000000E+00  0.00000000E+00  1.16102171E-05
  6.92130930E-05  2.29906651E-01  1.90360361E-01  3.09968229E-05  1.86244973E-05
  0.00000000E+00  2.02932802E-03  6.65829688E-05  1.74524169E-04  0.00000000E+00
 -3.94200608E-04 -3.06749278E-06 -1.23949294E-05  0.00000000E+00 -9.81339012E-05
  9.48375868E-05  1.71701962E-04  0.00000000E+00 -1.16993381E-04  0.00000000E+00
  0.00000000E+00  1.16102171E-05 -6.92130930E-05  2.29906651E-01  1.90360361E-01
  3.16276992E-05  1.75317874E-05  0.00000000E+00  2.02932802E-03  1.84433848E-04
 -2.95995421E-05  0.00000000E+00 -3.94200607E-04 -1.22680706E-05  3.54093775E-06
  0.00000000E+00 -9.81339238E-05  1.96117049E-04 -3.71921702E-06  0.00000000E+00
 -1.16993381E-04  0.00000000E+00  0.00000000E+00 -6.57454053E-05 -2.45518035E-05
  2.29906651E-01  1.90360361E-01  6.30876355E-07 -3.61562847E-05  0.00000000E+00
  2.02932802E-03  1.17850880E-04 -1.44924627E-04  0.00000000E+00 -3.94200608E-04
 -9.20057729E-06  8.85399134E-06  0.00000000E+00 -9.81339099E-05  1.01279467E-04
 -1.67982742E-04  0.00000000E+00 -1.16993381E-04  0.00000000E+00  0.00000000E+00
  5.41351882E-05  4.46612894E-05  1.77739125E-04 -1.56054991E-05  2.47705930E-04
  8.99853762E-05 -1.84790265E-05 -2.57427334E-05  0.00000000E+00  1.77739125E-04
 -1.56054992E-05  2.47705929E-04  8.99853738E-05 -3.15333743E-05 -3.13193970E-06
  0.00000000E+00  1.77739125E-04 -1.56054990E-05  2.47705929E-04  8.99853758E-05
 -1.30543478E-05  2.88746731E-05  0.00000000E+00  1.77739125E-04 -1.56054990E-05
  2.47705929E-04  8.99853758E-05  1.30543478E-05  2.88746731E-05  0.00000000E+00
  1.77739125E-04 -1.56054992E-05  2.47705929E-04  8.99853738E-05  3.15333743E-05
 -3.13193970E-06  0.00000000E+00  1.77739125E-04 -1.56054991E-05  2.47705930E-04
  8.99853762E-05  1.84790265E-05 -2.57427334E-05  0.00000000E+00  2.97481124E-01
  2.46354960E-01 -6.79423645E-05  3.14540170E-05  0.00000000E+00  2.41820989E-03
 -1.88837653E-04 -4.65077788E-06  0.00000000E+00 -3.76580750E-04  1.14987443E-04
 -3.81342185E-05  0.00000000E+00 -7.24842779E-04 -1.09015025E-03 -7.93347863E-04
  0.00000000E+00 -1.72730011E-04  0.00000000E+00  0.00000000E+00  1.24983434E-04
 -8.27980657E-06 -3.50061804E-02 -2.90001822E-02 -1.39251308E-07  1.78083453E-04
  0.00000000E+00 -2.43631462E-04 -3.65085054E-05  1.63208044E-04  0.00000000E+00
  1.75599162E-04 -7.98174099E-05 -2.31853164E-04  0.00000000E+00 -1.24129410E-03
  4.11503736E-04  1.18875924E-03  0.00000000E+00  1.19170299E-05  0.00000000E+00
  0.00000000E+00 -8.14553341E-06 -1.15010989E-04 -2.62474944E-01 -2.17354778E-01
  9.30832598E-05  4.58083262E-05  0.00000000E+00 -2.17457843E-03  6.92054304E-05
 -1.15876864E-04  0.00000000E+00  2.00981588E-04 -7.03631016E-05 -1.04535549E-04
  0.00000000E+00  1.96613688E-03  9.65728108E-04 -3.90019435E-04  0.00000000E+00
  1.60812981E-04  0.00000000E+00  0.00000000E+00 -4.83540104E-05 -6.19274767E-05
 -2.62474944E-01 -2.17354778E-01 -9.30832598E-05  4.58083262E-05  0.00000000E+00
 -2.17457843E-03 -6.92054304E-05 -1.15876864E-04  0.00000000E+00  2.00981588E-04
  7.03631016E-05 -1.04535549E-04  0.00000000E+00  1.96613688E-03 -9.65728108E-04
 -3.90019435E-04  0.00000000E+00  1.60812981E-04  0.00000000E+00  0.00000000E+00
 -4.83540104E-05  6.19274767E-05 -3.50061804E-02 -2.90001822E-02  1.39251308E-07
  1.78083453E-04  0.00000000E+00 -2.43631462E-04  3.65085054E-05  1.63208044E-04
  0.00000000E+00  1.75599162E-04  7.98174099E-05 -2.31853164E-04  0.00000000E+00
 -1.24129410E-03 -4.11503736E-04  1.18875924E-03  0.00000000E+00  1.19170299E-05
  0.00000000E+00  0.00000000E+00 -8.14553341E-06  1.15010989E-04  2.97481124E-01
  2.46354960E-01  6.79423645E-05  3.14540170E-05  0.00000000E+00  2.41820989E-03
  1.88837653E-04 -4.65077788E-06  0.00000000E+00 -3.76580750E-04 -1.14987443E-04