 Entering Gaussian System, Link 0=g09
 Initial command:
 /apps/software//g09/l1.exe /scratch/itamar/3035.cluster.abaxnet/Gau-25084.inp -scrdir=/scratch/itamar/3035.cluster.abaxnet/
 Entering Link 1 = /apps/software//g09/l1.exe PID=     25085.
  
 Copyright (c) 1988,1990,1992,1993,1995,1998,2003,2009, Gaussian, Inc.
                  All Rights Reserved.
  
 This is part of the Gaussian(R) 09 program.  It is based on
 the Gaussian(R) 03 system (copyright 2003, Gaussian, Inc.),
 the Gaussian(R) 98 system (copyright 1998, Gaussian, Inc.),
 the Gaussian(R) 94 system (copyright 1995, Gaussian, Inc.),
 the Gaussian 92(TM) system (copyright 1992, Gaussian, Inc.),
 the Gaussian 90(TM) system (copyright 1990, Gaussian, Inc.),
 the Gaussian 88(TM) system (copyright 1988, Gaussian, Inc.),
 the Gaussian 86(TM) system (copyright 1986, Carnegie Mellon
 University), and the Gaussian 82(TM) system (copyright 1983,
 Carnegie Mellon University). Gaussian is a federally registered
 trademark of Gaussian, Inc.
  
 This software contains proprietary and confidential information,
 including trade secrets, belonging to Gaussian, Inc.
  
 This software is provided under written license and may be
 used, copied, transmitted, or stored only in accord with that
 written license.
  
 The following legend is applicable only to US Government
 contracts under FAR:
  
                    RESTRICTED RIGHTS LEGEND
  
 Use, reproduction and disclosure by the US Government is
 subject to restrictions as set forth in subparagraphs (a)
 and (c) of the Commercial Computer Software - Restricted
 Rights clause in FAR 52.227-19.
  
 Gaussian, Inc.
 340 Quinnipiac St., Bldg. 40, Wallingford CT 06492
  
  
 ---------------------------------------------------------------
 Warning -- This program may not be used in any manner that
 competes with the business of Gaussian, Inc. or will provide
 assistance to any competitor of Gaussian, Inc.  The licensee
 of this program is prohibited from giving any competitor of
 Gaussian, Inc. access to this program.  By using this program,
 the user acknowledges that Gaussian, Inc. is engaged in the
 business of creating and licensing software in the field of
 computational chemistry and represents and warrants to the
 licensee that it is not a competitor of Gaussian, Inc. and that
 it will not use this program in any manner prohibited above.
 ---------------------------------------------------------------
  

 Cite this work as:
 Gaussian 09, Revision A.02,
 M. J. Frisch, G. W. Trucks, H. B. Schlegel, G. E. Scuseria, 
 M. A. Robb, J. R. Cheeseman, G. Scalmani, V. Barone, B. Mennucci, 
 G. A. Petersson, H. Nakatsuji, M. Caricato, X. Li, H. P. Hratchian, 
 A. F. Izmaylov, J. Bloino, G. Zheng, J. L. Sonnenberg, M. Hada, 
 M. Ehara, K. Toyota, R. Fukuda, J. Hasegawa, M. Ishida, T. Nakajima, 
 Y. Honda, O. Kitao, H. Nakai, T. Vreven, J. A. Montgomery, Jr., 
 J. E. Peralta, F. Ogliaro, M. Bearpark, J. J. Heyd, E. Brothers, 
 K. N. Kudin, V. N. Staroverov, R. Kobayashi, J. Normand, 
 K. Raghavachari, A. Rendell, J. C. Burant, S. S. Iyengar, J. Tomasi, 
 M. Cossi, N. Rega, J. M. Millam, M. Klene, J. E. Knox, J. B. Cross, 
 V. Bakken, C. Adamo, J. Jaramillo, R. Gomperts, R. E. Stratmann, 
 O. Yazyev, A. J. Austin, R. Cammi, C. Pomelli, J. W. Ochterski, 
 R. L. Martin, K. Morokuma, V. G. Zakrzewski, G. A. Voth, 
 P. Salvador, J. J. Dannenberg, S. Dapprich, A. D. Daniels, 
 O. Farkas, J. B. Foresman, J. V. Ortiz, J. Cioslowski, 
 and D. J. Fox, Gaussian, Inc., Wallingford CT, 2009.
 
 ******************************************
 Gaussian 09:  EM64L-G09RevA.02 11-Jun-2009
                22-Dec-2021 
 ******************************************
 %Mem=3800MB
 %NProcShared=6
 Will use up to    6 processors via shared memory.
 %chk=/home/itamar/Aromaticity-test-set/T12-old-T14-Fulvenes/Hepta-CH2/hepta-ch2.
 chk
 -----------------------------
 #P MP2/6-311++G** DENSITY=MP2
 -----------------------------
 1/30=1,38=1/1;
 2/12=2,17=6,18=5,40=1/2;
 3/5=4,6=6,7=1111,11=9,16=1,25=1,30=1,71=1/1,2,3;
 4//1;
 5/5=2,38=5/2;
 8/6=4,10=2/1;
 9/15=1,16=-3/6;
 10/5=1,13=10/2;
 6/7=2,8=2,9=2,10=2,22=2/1;
 99/5=1,9=1/99;
 Leave Link    1 at Wed Dec 22 17:38:03 2021, MaxMem=  498073600 cpu:       0.2
 (Enter /apps/software//g09/l101.exe)
 ---------
 Hepta-CH2
 ---------
 Symbolic Z-matrix:
 Charge =  0 Multiplicity = 1
 6                     0.67629  -1.88903   0. 
 6                     1.5649   -0.74669   0. 
 6                    -0.67591  -1.88927   0. 
 6                    -1.56479  -0.74707   0. 
 6                    -1.28198   0.57493   0. 
 6                     0.        1.28496   0. 
 6                     1.28192   0.57533   0. 
 1                    -2.14178   1.24013   0. 
 1                     2.1418    1.2404    0. 
 1                     2.62147  -0.99962   0. 
 1                     1.16908  -2.8566    0. 
 1                    -1.16839  -2.85699   0. 
 1                    -2.62132  -1.00013   0. 
 6                    -0.00038   2.64036   0. 
 1                     0.92314   3.2061    0. 
 1                    -0.9243    3.20554   0. 
 
 NAtoms=     16 NQM=     16 NQMF=      0 NMic=      0 NMicF=      0 NTot=     16.
                    Isotopes and Nuclear Properties:
 (Nuclear quadrupole moments (NQMom) in fm**2, nuclear magnetic moments (NMagM)
  in nuclear magnetons)

  Atom         1           2           3           4           5           6           7           8           9          10
 IAtWgt=          12          12          12          12          12          12          12           1           1           1
 AtmWgt=  12.0000000  12.0000000  12.0000000  12.0000000  12.0000000  12.0000000  12.0000000   1.0078250   1.0078250   1.0078250
 NucSpn=           0           0           0           0           0           0           0           1           1           1
 AtZEff=   0.0000000   0.0000000   0.0000000   0.0000000   0.0000000   0.0000000   0.0000000   0.0000000   0.0000000   0.0000000
 NQMom=    0.0000000   0.0000000   0.0000000   0.0000000   0.0000000   0.0000000   0.0000000   0.0000000   0.0000000   0.0000000
 NMagM=    0.0000000   0.0000000   0.0000000   0.0000000   0.0000000   0.0000000   0.0000000   2.7928460   2.7928460   2.7928460

  Atom        11          12          13          14          15          16
 IAtWgt=           1           1           1          12           1           1
 AtmWgt=   1.0078250   1.0078250   1.0078250  12.0000000   1.0078250   1.0078250
 NucSpn=           1           1           1           0           1           1
 AtZEff=   0.0000000   0.0000000   0.0000000   0.0000000   0.0000000   0.0000000
 NQMom=    0.0000000   0.0000000   0.0000000   0.0000000   0.0000000   0.0000000
 NMagM=    2.7928460   2.7928460   2.7928460   0.0000000   2.7928460   2.7928460
 Leave Link  101 at Wed Dec 22 17:38:03 2021, MaxMem=  498073600 cpu:       0.2
 (Enter /apps/software//g09/l202.exe)
                          Input orientation:                          
 ---------------------------------------------------------------------
 Center     Atomic      Atomic             Coordinates (Angstroms)
 Number     Number       Type             X           Y           Z
 ---------------------------------------------------------------------
      1          6           0        0.676294   -1.889034    0.000000
      2          6           0        1.564903   -0.746685    0.000000
      3          6           0       -0.675913   -1.889272    0.000000
      4          6           0       -1.564793   -0.747065    0.000000
      5          6           0       -1.281978    0.574934    0.000000
      6          6           0        0.000000    1.284964    0.000000
      7          6           0        1.281919    0.575328    0.000000
      8          1           0       -2.141778    1.240127    0.000000
      9          1           0        2.141798    1.240404    0.000000
     10          1           0        2.621465   -0.999615    0.000000
     11          1           0        1.169078   -2.856600    0.000000
     12          1           0       -1.168393   -2.856985    0.000000
     13          1           0       -2.621317   -1.000132    0.000000
     14          6           0       -0.000382    2.640357    0.000000
     15          1           0        0.923143    3.206099    0.000000
     16          1           0       -0.924302    3.205544    0.000000
 ---------------------------------------------------------------------
                    Distance matrix (angstroms):
                    1          2          3          4          5
     1  C    0.000000
     2  C    1.447269   0.000000
     3  C    1.352207   2.515305   0.000000
     4  C    2.515266   3.129696   1.447323   0.000000
     5  C    3.147375   3.138695   2.537642   1.351912   0.000000
     6  C    3.245248   2.564472   3.245402   2.564706   1.465473
     7  C    2.537688   1.351961   3.147596   3.138868   2.563897
     8  H    4.211078   4.205580   3.455705   2.069262   1.087078
     9  H    3.455587   2.069138   4.211219   4.205811   3.487849
    10  H    2.138868   1.086415   3.415288   4.193869   4.209046
    11  H    1.085827   2.146723   2.083198   3.453142   4.217001
    12  H    2.083218   3.453154   1.085820   2.146834   3.433798
    13  H    3.415316   4.193885   2.138964   1.086410   2.067526
    14  C    4.579659   3.731243   4.579725   3.731221   2.430732
    15  H    5.101109   4.004542   5.340392   4.670903   3.433014
    16  H    5.340097   4.670787   5.100867   4.004166   2.654815
                    6          7          8          9         10
     6  C    0.000000
     7  C    1.465230   0.000000
     8  H    2.142247   3.487644   0.000000
     9  H    2.142261   1.087069   4.283576   0.000000
    10  H    3.477266   2.067566   5.263547   2.290800   0.000000
    11  H    4.303405   3.433783   5.267347   4.210894   2.357503
    12  H    4.303590   4.217203   4.211152   5.267444   4.220527
    13  H    3.477494   4.209195   2.291008   5.263769   5.242782
    14  C    1.355393   2.430770   2.558558   2.559063   4.485920
    15  H    2.131420   2.655123   3.641262   2.312807   4.535673
    16  H    2.131422   3.432994   2.311950   3.641805   5.500530
                   11         12         13         14         15
    11  H    0.000000
    12  H    2.337471   0.000000
    13  H    4.220612   2.357730   0.000000
    14  C    5.619980   5.620055   4.485807   0.000000
    15  H    6.067685   6.413697   5.500507   1.083034   0.000000
    16  H    6.413410   6.067441   4.535148   1.083081   1.847445
                   16
    16  H    0.000000
 Stoichiometry    C8H8
 Framework group  CS[SG(C8H8)]
 Deg. of freedom    29
 Full point group                 CS      NOp   2
 Largest Abelian subgroup         CS      NOp   2
 Largest concise Abelian subgroup C1      NOp   1
                         Standard orientation:                         
 ---------------------------------------------------------------------
 Center     Atomic      Atomic             Coordinates (Angstroms)
 Number     Number       Type             X           Y           Z
 ---------------------------------------------------------------------
      1          6           0        0.676294   -1.889034    0.000000
      2          6           0        1.564903   -0.746685    0.000000
      3          6           0       -0.675913   -1.889272    0.000000
      4          6           0       -1.564793   -0.747065    0.000000
      5          6           0       -1.281978    0.574934    0.000000
      6          6           0        0.000000    1.284964    0.000000
      7          6           0        1.281919    0.575328    0.000000
      8          1           0       -2.141778    1.240127    0.000000
      9          1           0        2.141798    1.240404    0.000000
     10          1           0        2.621465   -0.999615    0.000000
     11          1           0        1.169078   -2.856600    0.000000
     12          1           0       -1.168393   -2.856985    0.000000
     13          1           0       -2.621317   -1.000132    0.000000
     14          6           0       -0.000382    2.640357    0.000000
     15          1           0        0.923143    3.206099    0.000000
     16          1           0       -0.924302    3.205544    0.000000
 ---------------------------------------------------------------------
 Rotational constants (GHZ):      3.6955730      1.9997618      1.2975999
 Leave Link  202 at Wed Dec 22 17:38:03 2021, MaxMem=  498073600 cpu:       0.1
 (Enter /apps/software//g09/l301.exe)
 Standard basis: 6-311++G(d,p) (5D, 7F)
 Ernie: Thresh=  0.10000D-02 Tol=  0.10000D-05 Strict=F.
 There are   176 symmetry adapted basis functions of A'  symmetry.
 There are    56 symmetry adapted basis functions of A"  symmetry.
 Integral buffers will be    131072 words long.
 Raffenetti 1 integral format.
 Two-electron integral symmetry is turned on.
   232 basis functions,   360 primitive gaussians,   240 cartesian basis functions
    28 alpha electrons       28 beta electrons
       nuclear repulsion energy       320.6018742980 Hartrees.
 IExCor=    0 DFT=F Ex=HF Corr=None ExCW=0 ScaHFX=  1.000000
 ScaDFX=  1.000000  1.000000  1.000000  1.000000 ScalE2=  1.000000  1.000000
 IRadAn=      0 IRanWt=     -1 IRanGd=            0 ICorTp=0
 NAtoms=   16 NActive=   16 NUniq=   16 SFac= 7.50D-01 NAtFMM=   80 NAOKFM=F Big=F
 Leave Link  301 at Wed Dec 22 17:38:03 2021, MaxMem=  498073600 cpu:       0.2
 (Enter /apps/software//g09/l302.exe)
 NPDir=0 NMtPBC=     1 NCelOv=     1 NCel=       1 NClECP=     1 NCelD=      1
         NCelK=      1 NCelE2=     1 NClLst=     1 CellRange=     0.0.
 One-electron integrals computed using PRISM.
 NBasis=   232 RedAO= T  NBF=   176    56
 NBsUse=   232 1.00D-06 NBFU=   176    56
 Leave Link  302 at Wed Dec 22 17:38:03 2021, MaxMem=  498073600 cpu:       1.8
 (Enter /apps/software//g09/l303.exe)
 DipDrv:  MaxL=1.
 Leave Link  303 at Wed Dec 22 17:38:03 2021, MaxMem=  498073600 cpu:       0.2
 (Enter /apps/software//g09/l401.exe)
 Harris functional with IExCor=  205 diagonalized for initial guess.
 ExpMin= 3.60D-02 ExpMax= 4.56D+03 ExpMxC= 6.82D+02 IAcc=3 IRadAn=         0 AccDes= 0.00D+00
 HarFok:  IExCor=  205 AccDes= 0.00D+00 IRadAn=         0 IDoV= 1
 ScaDFX=  1.000000  1.000000  1.000000  1.000000
 FoFCou: FMM=F IPFlag=           0 FMFlag=      100000 FMFlg1=           0
         NFxFlg=           0 DoJE=T BraDBF=F KetDBF=T FulRan=T
         Omega=  0.000000  0.000000  1.000000  0.000000  0.000000 ICntrl=     500 IOpCl=  0
         NMat0=    1 NMatS0=    1 NMatT0=    0 NMatD0=    1 NMtDS0=    0 NMtDT0=    0
         I1Cent=           4 NGrid=           0.
 Petite list used in FoFCou.
 Harris En= -308.141765232660    
 Initial guess orbital symmetries:
       Occupied  (A') (A') (A') (A') (A') (A') (A') (A') (A') (A')
                 (A') (A') (A') (A') (A') (A') (A') (A') (A') (A')
                 (A') (A') (A') (A") (A') (A") (A") (A")
       Virtual   (A") (A") (A") (A') (A") (A') (A') (A') (A') (A')
                 (A') (A') (A") (A') (A') (A") (A") (A') (A') (A')
                 (A') (A') (A') (A") (A') (A") (A') (A') (A') (A')
                 (A") (A') (A') (A') (A') (A") (A") (A') (A') (A')
                 (A') (A') (A') (A') (A') (A') (A') (A') (A') (A')
                 (A') (A') (A') (A') (A') (A') (A') (A') (A') (A')
                 (A') (A") (A') (A') (A") (A') (A') (A') (A") (A')
                 (A') (A") (A") (A') (A") (A") (A") (A') (A') (A')
                 (A') (A') (A') (A') (A') (A') (A') (A') (A') (A')
                 (A') (A') (A") (A') (A') (A') (A") (A") (A") (A")
                 (A') (A") (A') (A') (A") (A") (A') (A') (A') (A')
                 (A') (A') (A') (A') (A") (A') (A') (A") (A") (A")
                 (A') (A') (A") (A') (A') (A") (A') (A") (A') (A")
                 (A') (A") (A') (A') (A') (A') (A") (A") (A') (A')
                 (A') (A") (A") (A') (A') (A") (A") (A') (A') (A')
                 (A") (A') (A') (A') (A') (A") (A') (A') (A') (A')
                 (A') (A') (A") (A') (A') (A") (A') (A") (A') (A')
                 (A') (A') (A") (A') (A") (A") (A") (A') (A') (A')
                 (A') (A') (A') (A') (A') (A') (A') (A') (A') (A')
                 (A') (A') (A') (A') (A') (A') (A') (A') (A') (A')
                 (A') (A') (A') (A')
 The electronic state of the initial guess is 1-A'.
 Leave Link  401 at Wed Dec 22 17:38:04 2021, MaxMem=  498073600 cpu:       4.3
 (Enter /apps/software//g09/l502.exe)
 Closed shell SCF:
 Requested convergence on RMS density matrix=1.00D-08 within 128 cycles.
 Requested convergence on MAX density matrix=1.00D-06.
 Requested convergence on             energy=1.00D-06.
 No special actions if energy rises.
 Using DIIS extrapolation, IDIIS=  1040.
 Integral symmetry usage will be decided dynamically.
 Keep R1 ints in memory in canonical form, NReq=425390580.
 IEnd=      194266 IEndB=      194266 NGot=   498073600 MDV=    79756127
 LenX=    79756127 LenY=    79698086
 Symmetry not used in FoFDir.
 MinBra= 0 MaxBra= 2 Meth= 1.
 IRaf=       0 NMat=   1 IRICut=       1 DoRegI=T DoRafI=F ISym2E= 0 JSym2E=0.

 Cycle   1  Pass 1  IDiag  1:
 E= -307.209952317891    
 DIIS: error= 7.31D-02 at cycle   1 NSaved=   1.
 NSaved= 1 IEnMin= 1 EnMin= -307.209952317891     IErMin= 1 ErrMin= 7.31D-02
 ErrMax= 7.31D-02 EMaxC= 1.00D-01 BMatC= 6.79D-01 BMatP= 6.79D-01
 IDIUse=3 WtCom= 2.69D-01 WtEn= 7.31D-01
 Coeff-Com:  0.100D+01
 Coeff-En:   0.100D+01
 Coeff:      0.100D+01
 Gap=     0.261 Goal=   None    Shift=    0.000
 GapD=    0.261 DampG=1.000 DampE=0.500 DampFc=0.5000 IDamp=-1.
 Damping current iteration by 5.00D-01
 RMSDP=1.85D-02 MaxDP=1.27D+00              OVMax= 1.83D-01

 Cycle   2  Pass 1  IDiag  1:
 E= -307.417657863391     Delta-E=       -0.207705545500 Rises=F Damp=T
 DIIS: error= 2.88D-02 at cycle   2 NSaved=   2.
 NSaved= 2 IEnMin= 2 EnMin= -307.417657863391     IErMin= 2 ErrMin= 2.88D-02
 ErrMax= 2.88D-02 EMaxC= 1.00D-01 BMatC= 1.50D-01 BMatP= 6.79D-01
 IDIUse=3 WtCom= 7.12D-01 WtEn= 2.88D-01
 Coeff-Com: -0.743D+00 0.174D+01
 Coeff-En:   0.000D+00 0.100D+01
 Coeff:     -0.529D+00 0.153D+01
 Gap=     0.307 Goal=   None    Shift=    0.000
 RMSDP=1.59D-02 MaxDP=8.48D-01 DE=-2.08D-01 OVMax= 5.33D-02

 Cycle   3  Pass 1  IDiag  1:
 E= -307.604974293869     Delta-E=       -0.187316430478 Rises=F Damp=F
 DIIS: error= 3.00D-03 at cycle   3 NSaved=   3.
 NSaved= 3 IEnMin= 3 EnMin= -307.604974293869     IErMin= 3 ErrMin= 3.00D-03
 ErrMax= 3.00D-03 EMaxC= 1.00D-01 BMatC= 1.28D-03 BMatP= 1.50D-01
 IDIUse=3 WtCom= 9.70D-01 WtEn= 3.00D-02
 Coeff-Com: -0.690D-01 0.103D+00 0.966D+00
 Coeff-En:   0.000D+00 0.000D+00 0.100D+01
 Coeff:     -0.669D-01 0.100D+00 0.967D+00
 Gap=     0.300 Goal=   None    Shift=    0.000
 RMSDP=2.93D-03 MaxDP=2.15D-01 DE=-1.87D-01 OVMax= 1.48D-02

 Cycle   4  Pass 1  IDiag  1:
 E= -307.606603510607     Delta-E=       -0.001629216738 Rises=F Damp=F
 DIIS: error= 1.51D-03 at cycle   4 NSaved=   4.
 NSaved= 4 IEnMin= 4 EnMin= -307.606603510607     IErMin= 4 ErrMin= 1.51D-03
 ErrMax= 1.51D-03 EMaxC= 1.00D-01 BMatC= 1.43D-04 BMatP= 1.28D-03
 IDIUse=3 WtCom= 9.85D-01 WtEn= 1.51D-02
 Coeff-Com: -0.451D-03-0.105D-01 0.182D+00 0.829D+00
 Coeff-En:   0.000D+00 0.000D+00 0.000D+00 0.100D+01
 Coeff:     -0.444D-03-0.103D-01 0.180D+00 0.831D+00
 Gap=     0.301 Goal=   None    Shift=    0.000
 RMSDP=6.45D-04 MaxDP=3.24D-02 DE=-1.63D-03 OVMax= 8.05D-03

 Cycle   5  Pass 1  IDiag  1:
 E= -307.606849939397     Delta-E=       -0.000246428791 Rises=F Damp=F
 DIIS: error= 7.01D-04 at cycle   5 NSaved=   5.
 NSaved= 5 IEnMin= 5 EnMin= -307.606849939397     IErMin= 5 ErrMin= 7.01D-04
 ErrMax= 7.01D-04 EMaxC= 1.00D-01 BMatC= 2.85D-05 BMatP= 1.43D-04
 IDIUse=3 WtCom= 9.93D-01 WtEn= 7.01D-03
 Coeff-Com:  0.945D-02-0.163D-01-0.999D-01 0.137D+00 0.970D+00
 Coeff-En:   0.000D+00 0.000D+00 0.000D+00 0.000D+00 0.100D+01
 Coeff:      0.938D-02-0.162D-01-0.992D-01 0.136D+00 0.970D+00
 Gap=     0.302 Goal=   None    Shift=    0.000
 RMSDP=4.03D-04 MaxDP=1.89D-02 DE=-2.46D-04 OVMax= 4.16D-03

 Cycle   6  Pass 1  IDiag  1:
 E= -307.606927618616     Delta-E=       -0.000077679219 Rises=F Damp=F
 DIIS: error= 4.38D-04 at cycle   6 NSaved=   6.
 NSaved= 6 IEnMin= 6 EnMin= -307.606927618616     IErMin= 6 ErrMin= 4.38D-04
 ErrMax= 4.38D-04 EMaxC= 1.00D-01 BMatC= 2.68D-06 BMatP= 2.85D-05
 IDIUse=3 WtCom= 9.96D-01 WtEn= 4.38D-03
 Coeff-Com:  0.230D-03 0.779D-03-0.218D-01-0.932D-01-0.427D-01 0.116D+01
 Coeff-En:   0.000D+00 0.000D+00 0.000D+00 0.000D+00 0.000D+00 0.100D+01
 Coeff:      0.229D-03 0.775D-03-0.217D-01-0.928D-01-0.425D-01 0.116D+01
 Gap=     0.302 Goal=   None    Shift=    0.000
 RMSDP=1.11D-04 MaxDP=6.26D-03 DE=-7.77D-05 OVMax= 3.05D-03

 Cycle   7  Pass 1  IDiag  1:
 E= -307.606944431736     Delta-E=       -0.000016813120 Rises=F Damp=F
 DIIS: error= 1.29D-04 at cycle   7 NSaved=   7.
 NSaved= 7 IEnMin= 7 EnMin= -307.606944431736     IErMin= 7 ErrMin= 1.29D-04
 ErrMax= 1.29D-04 EMaxC= 1.00D-01 BMatC= 5.44D-07 BMatP= 2.68D-06
 IDIUse=3 WtCom= 9.99D-01 WtEn= 1.29D-03
 Coeff-Com: -0.128D-02 0.206D-02 0.164D-01 0.451D-02-0.162D+00-0.576D-01
 Coeff-Com:  0.120D+01
 Coeff-En:   0.000D+00 0.000D+00 0.000D+00 0.000D+00 0.000D+00 0.000D+00
 Coeff-En:   0.100D+01
 Coeff:     -0.128D-02 0.206D-02 0.164D-01 0.450D-02-0.162D+00-0.575D-01
 Coeff:      0.120D+01
 Gap=     0.302 Goal=   None    Shift=    0.000
 RMSDP=6.80D-05 MaxDP=4.72D-03 DE=-1.68D-05 OVMax= 1.50D-03

 Cycle   8  Pass 1  IDiag  1:
 E= -307.606947058914     Delta-E=       -0.000002627178 Rises=F Damp=F
 DIIS: error= 6.19D-05 at cycle   8 NSaved=   8.
 NSaved= 8 IEnMin= 8 EnMin= -307.606947058914     IErMin= 8 ErrMin= 6.19D-05
 ErrMax= 6.19D-05 EMaxC= 1.00D-01 BMatC= 9.05D-08 BMatP= 5.44D-07
 IDIUse=1 WtCom= 1.00D+00 WtEn= 0.00D+00
 Coeff-Com: -0.454D-03 0.525D-03 0.906D-02 0.220D-01-0.532D-01-0.217D+00
 Coeff-Com:  0.326D+00 0.913D+00
 Coeff:     -0.454D-03 0.525D-03 0.906D-02 0.220D-01-0.532D-01-0.217D+00
 Coeff:      0.326D+00 0.913D+00
 Gap=     0.302 Goal=   None    Shift=    0.000
 RMSDP=2.49D-05 MaxDP=1.78D-03 DE=-2.63D-06 OVMax= 4.43D-04

 Cycle   9  Pass 1  IDiag  1:
 E= -307.606947334563     Delta-E=       -0.000000275649 Rises=F Damp=F
 DIIS: error= 8.52D-06 at cycle   9 NSaved=   9.
 NSaved= 9 IEnMin= 9 EnMin= -307.606947334563     IErMin= 9 ErrMin= 8.52D-06
 ErrMax= 8.52D-06 EMaxC= 1.00D-01 BMatC= 4.63D-09 BMatP= 9.05D-08
 IDIUse=1 WtCom= 1.00D+00 WtEn= 0.00D+00
 Coeff-Com:  0.581D-04-0.102D-03-0.695D-03 0.171D-02 0.353D-02 0.934D-02
 Coeff-Com: -0.640D-01 0.368D-02 0.105D+01
 Coeff:      0.581D-04-0.102D-03-0.695D-03 0.171D-02 0.353D-02 0.934D-02
 Coeff:     -0.640D-01 0.368D-02 0.105D+01
 Gap=     0.302 Goal=   None    Shift=    0.000
 RMSDP=5.34D-06 MaxDP=3.22D-04 DE=-2.76D-07 OVMax= 7.25D-05

 Cycle  10  Pass 1  IDiag  1:
 E= -307.606947345935     Delta-E=       -0.000000011372 Rises=F Damp=F
 DIIS: error= 2.36D-06 at cycle  10 NSaved=  10.
 NSaved=10 IEnMin=10 EnMin= -307.606947345935     IErMin=10 ErrMin= 2.36D-06
 ErrMax= 2.36D-06 EMaxC= 1.00D-01 BMatC= 1.18D-09 BMatP= 4.63D-09
 IDIUse=1 WtCom= 1.00D+00 WtEn= 0.00D+00
 Coeff-Com:  0.777D-04-0.102D-03-0.133D-02-0.205D-02 0.569D-02 0.328D-01
 Coeff-Com: -0.546D-01-0.140D+00 0.205D+00 0.955D+00
 Coeff:      0.777D-04-0.102D-03-0.133D-02-0.205D-02 0.569D-02 0.328D-01
 Coeff:     -0.546D-01-0.140D+00 0.205D+00 0.955D+00
 Gap=     0.302 Goal=   None    Shift=    0.000
 RMSDP=3.15D-06 MaxDP=2.32D-04 DE=-1.14D-08 OVMax= 1.91D-05

 Cycle  11  Pass 1  IDiag  1:
 E= -307.606947348431     Delta-E=       -0.000000002496 Rises=F Damp=F
 DIIS: error= 1.28D-06 at cycle  11 NSaved=  11.
 NSaved=11 IEnMin=11 EnMin= -307.606947348431     IErMin=11 ErrMin= 1.28D-06
 ErrMax= 1.28D-06 EMaxC= 1.00D-01 BMatC= 1.19D-10 BMatP= 1.18D-09
 IDIUse=1 WtCom= 1.00D+00 WtEn= 0.00D+00
 Coeff-Com: -0.145D-04 0.207D-04 0.295D-03 0.238D-03-0.246D-02-0.393D-02
 Coeff-Com:  0.211D-01 0.514D-02-0.185D+00-0.135D+00 0.130D+01
 Coeff:     -0.145D-04 0.207D-04 0.295D-03 0.238D-03-0.246D-02-0.393D-02
 Coeff:      0.211D-01 0.514D-02-0.185D+00-0.135D+00 0.130D+01
 Gap=     0.302 Goal=   None    Shift=    0.000
 RMSDP=1.42D-06 MaxDP=1.05D-04 DE=-2.50D-09 OVMax= 1.28D-05

 Cycle  12  Pass 1  IDiag  1:
 E= -307.606947348809     Delta-E=       -0.000000000378 Rises=F Damp=F
 DIIS: error= 2.42D-07 at cycle  12 NSaved=  12.
 NSaved=12 IEnMin=12 EnMin= -307.606947348809     IErMin=12 ErrMin= 2.42D-07
 ErrMax= 2.42D-07 EMaxC= 1.00D-01 BMatC= 6.22D-12 BMatP= 1.19D-10
 IDIUse=1 WtCom= 1.00D+00 WtEn= 0.00D+00
 Coeff-Com: -0.379D-05 0.500D-05 0.634D-04 0.134D-03-0.307D-03-0.159D-02
 Coeff-Com:  0.293D-02 0.519D-02 0.470D-02-0.531D-01-0.930D-01 0.113D+01
 Coeff:     -0.379D-05 0.500D-05 0.634D-04 0.134D-03-0.307D-03-0.159D-02
 Coeff:      0.293D-02 0.519D-02 0.470D-02-0.531D-01-0.930D-01 0.113D+01
 Gap=     0.302 Goal=   None    Shift=    0.000
 RMSDP=2.17D-07 MaxDP=1.57D-05 DE=-3.78D-10 OVMax= 1.93D-06

 Cycle  13  Pass 1  IDiag  1:
 E= -307.606947348837     Delta-E=       -0.000000000028 Rises=F Damp=F
 DIIS: error= 8.51D-08 at cycle  13 NSaved=  13.
 NSaved=13 IEnMin=13 EnMin= -307.606947348837     IErMin=13 ErrMin= 8.51D-08
 ErrMax= 8.51D-08 EMaxC= 1.00D-01 BMatC= 7.58D-13 BMatP= 6.22D-12
 IDIUse=1 WtCom= 1.00D+00 WtEn= 0.00D+00
 Coeff-Com:  0.131D-05-0.181D-05-0.306D-04-0.212D-04 0.247D-03 0.372D-03
 Coeff-Com: -0.193D-02-0.182D-02 0.232D-01 0.123D-01-0.141D+00 0.115D-01
 Coeff-Com:  0.110D+01
 Coeff:      0.131D-05-0.181D-05-0.306D-04-0.212D-04 0.247D-03 0.372D-03
 Coeff:     -0.193D-02-0.182D-02 0.232D-01 0.123D-01-0.141D+00 0.115D-01
 Coeff:      0.110D+01
 Gap=     0.302 Goal=   None    Shift=    0.000
 RMSDP=5.81D-08 MaxDP=3.53D-06 DE=-2.76D-11 OVMax= 8.14D-07

 Cycle  14  Pass 1  IDiag  1:
 E= -307.606947348834     Delta-E=        0.000000000003 Rises=F Damp=F
 DIIS: error= 2.56D-08 at cycle  14 NSaved=  14.
 NSaved=14 IEnMin=13 EnMin= -307.606947348837     IErMin=14 ErrMin= 2.56D-08
 ErrMax= 2.56D-08 EMaxC= 1.00D-01 BMatC= 1.05D-13 BMatP= 7.58D-13
 IDIUse=1 WtCom= 1.00D+00 WtEn= 0.00D+00
 Coeff-Com:  0.186D-06-0.220D-06-0.270D-05-0.134D-04 0.256D-05 0.116D-03
 Coeff-Com:  0.115D-03-0.928D-03-0.308D-02 0.338D-02 0.329D-01-0.162D+00
 Coeff-Com: -0.737D-01 0.120D+01
 Coeff:      0.186D-06-0.220D-06-0.270D-05-0.134D-04 0.256D-05 0.116D-03
 Coeff:      0.115D-03-0.928D-03-0.308D-02 0.338D-02 0.329D-01-0.162D+00
 Coeff:     -0.737D-01 0.120D+01
 Gap=     0.302 Goal=   None    Shift=    0.000
 RMSDP=1.97D-08 MaxDP=9.20D-07 DE= 2.96D-12 OVMax= 3.07D-07

 Cycle  15  Pass 1  IDiag  1:
 E= -307.606947348834     Delta-E=       -0.000000000001 Rises=F Damp=F
 DIIS: error= 6.65D-09 at cycle  15 NSaved=  15.
 NSaved=15 IEnMin=13 EnMin= -307.606947348837     IErMin=15 ErrMin= 6.65D-09
 ErrMax= 6.65D-09 EMaxC= 1.00D-01 BMatC= 6.32D-15 BMatP= 1.05D-13
 IDIUse=1 WtCom= 1.00D+00 WtEn= 0.00D+00
 Coeff-Com: -0.126D-06 0.173D-06 0.278D-05 0.408D-05-0.170D-04-0.584D-04
 Coeff-Com:  0.171D-03 0.174D-03-0.847D-03-0.203D-02 0.475D-02 0.288D-01
 Coeff-Com: -0.521D-01-0.301D+00 0.132D+01
 Coeff:     -0.126D-06 0.173D-06 0.278D-05 0.408D-05-0.170D-04-0.584D-04
 Coeff:      0.171D-03 0.174D-03-0.847D-03-0.203D-02 0.475D-02 0.288D-01
 Coeff:     -0.521D-01-0.301D+00 0.132D+01
 Gap=     0.302 Goal=   None    Shift=    0.000
 RMSDP=5.30D-09 MaxDP=2.24D-07 DE=-5.68D-13 OVMax= 7.16D-08

 SCF Done:  E(RHF) =  -307.606947349     A.U. after   15 cycles
             Convg  =    0.5297D-08             -V/T =  2.0012
 KE= 3.072244424300D+02 PE=-1.356585232058D+03 EE= 4.211519679812D+02
 Leave Link  502 at Wed Dec 22 17:38:25 2021, MaxMem=  498073600 cpu:     122.5
 (Enter /apps/software//g09/l801.exe)
 ExpMin= 3.60D-02 ExpMax= 4.56D+03 ExpMxC= 6.82D+02 IAcc=3 IRadAn=         5 AccDes= 0.00D+00
 HarFok:  IExCor=  205 AccDes= 0.00D+00 IRadAn=         5 IDoV=-2
 ScaDFX=  1.000000  1.000000  1.000000  1.000000
 Largest valence mixing into a core orbital is  1.51D-04
 Largest core mixing into a valence orbital is  4.37D-05
 Range of M.O.s used for correlation:     9   232
 NBasis=   232 NAE=    28 NBE=    28 NFC=     8 NFV=     0
 NROrb=    224 NOA=    20 NOB=    20 NVA=   204 NVB=   204

 **** Warning!!: The largest alpha MO coefficient is  0.23893784D+03

 Leave Link  801 at Wed Dec 22 17:38:25 2021, MaxMem=  498073600 cpu:       1.6
 (Enter /apps/software//g09/l906.exe)
 Frozen-core derivative calculation, NFC=   8 NFV=   0.
 FulOut=F Deriv=T AODrv=F NAtomX=    16
   MMem=          72  MDisk=          20 MDiskD=          20
  W3Min=     1559040 MinDsk=     2159240 NBas6D=         240
 NBas2D=       29256    NTT=       28920    LW2=     2040000
    MDV=   497392460 MDiskM=       28668 NBas2p=       28296
 Fully direct method using O(ONN) memory.
 IMap=   1   2   3   4   5   6   7   8   9  10  11  12  13  14  15  16  17  18  19  20
 IMap=  21  22  23  24  25  26  27  28
 JobTyp=1 Pass  1:  I=   9 to  18 NPSUse=  6 ParTrn=T ParDer=T DoDerP=T.
 JobTyp=1 Pass  2:  I=  19 to  28 NPSUse=  6 ParTrn=T ParDer=T DoDerP=T.
 Spin components of T(2) and E(2):
     alpha-alpha T2 =       0.5352705488D-01 E2=     -0.1401317572D+00
     alpha-beta  T2 =       0.3045125695D+00 E2=     -0.8241346906D+00
     beta-beta   T2 =       0.5352705488D-01 E2=     -0.1401317572D+00
 The integrals were generated   2 times.
 ANorm=    0.1188093717D+01
 E2 =    -0.1104398205D+01 EUMP2 =    -0.30871134555378D+03
 Leave Link  906 at Wed Dec 22 17:39:24 2021, MaxMem=  498073600 cpu:     352.7
 (Enter /apps/software//g09/l1002.exe)
 Minotr:  Closed shell wavefunction.
          Computing MP2/KS-MP2 derivatives.
          Using Z-Vector for PSCF gradient.
          Skipping F1 and S1 gradient terms here.
          Frozen-core window.
          Direct CPHF calculation.
          Differentiating once with respect to electric field.
                with respect to dipole field.
          Electric field/nuclear overlap derivatives assumed to be zero.
          Using symmetry in CPHF.
          Requested convergence is 1.0D-10 RMS, and 1.0D-09 maximum.
          NewPWx=F KeepS1=T KeepF1=T KeepIn=T MapXYZ=F SortEE=F KeepMc=T.
          MDV=     498073468 using IRadAn=       0.
          Keep R1 ints in memory in canonical form, NReq=419019441.
 Symmetry not used in FoFDir.
 MinBra= 0 MaxBra= 2 Meth= 1.
 IRaf=       0 NMat=   1 IRICut=       1 DoRegI=T DoRafI=F ISym2E= 0 JSym2E=0.
          Solving linear equations separately, MaxMat=       0.
          There are     1 degrees of freedom in the 1st order CPHF.  IDoFFX=0.
 LinEq1:  Iter=  0 NonCon=     1 RMS=3.51D-03 Max=8.95D-02
 AX will form     1 AO Fock derivatives at one time.
 LinEq1:  Iter=  1 NonCon=     1 RMS=8.82D-04 Max=1.79D-02
 LinEq1:  Iter=  2 NonCon=     1 RMS=3.37D-04 Max=1.04D-02
 LinEq1:  Iter=  3 NonCon=     1 RMS=1.28D-04 Max=4.19D-03
 LinEq1:  Iter=  4 NonCon=     1 RMS=4.22D-05 Max=8.31D-04
 LinEq1:  Iter=  5 NonCon=     1 RMS=1.21D-05 Max=3.24D-04
 LinEq1:  Iter=  6 NonCon=     1 RMS=4.26D-06 Max=1.11D-04
 LinEq1:  Iter=  7 NonCon=     1 RMS=1.58D-06 Max=2.72D-05
 LinEq1:  Iter=  8 NonCon=     1 RMS=4.31D-07 Max=7.88D-06
 LinEq1:  Iter=  9 NonCon=     1 RMS=1.53D-07 Max=3.30D-06
 LinEq1:  Iter= 10 NonCon=     1 RMS=4.35D-08 Max=5.95D-07
 LinEq1:  Iter= 11 NonCon=     1 RMS=1.03D-08 Max=2.32D-07
 LinEq1:  Iter= 12 NonCon=     1 RMS=2.64D-09 Max=5.25D-08
 LinEq1:  Iter= 13 NonCon=     1 RMS=7.84D-10 Max=1.04D-08
 LinEq1:  Iter= 14 NonCon=     1 RMS=1.76D-10 Max=4.13D-09
 LinEq1:  Iter= 15 NonCon=     1 RMS=4.06D-11 Max=1.73D-09
 LinEq1:  Iter= 16 NonCon=     0 RMS=1.18D-11 Max=4.49D-10
 Linear equations converged to 1.000D-10 1.000D-09 after    16 iterations.
 End of Minotr Frequency-dependent properties file   721 does not exist.
 End of Minotr Frequency-dependent properties file   722 does not exist.
 Leave Link 1002 at Wed Dec 22 17:39:59 2021, MaxMem=  498073600 cpu:     208.6
 (Enter /apps/software//g09/l601.exe)
 Copying SCF densities to generalized density rwf, IOpCl= 0 IROHF=0.

 **********************************************************************

            Population analysis using the MP2 density.

 **********************************************************************

 Orbital symmetries:
       Occupied  (A') (A') (A') (A') (A') (A') (A') (A') (A') (A')
                 (A') (A') (A') (A') (A') (A') (A') (A') (A') (A')
                 (A') (A') (A') (A") (A') (A") (A") (A")
       Virtual   (A') (A') (A') (A") (A') (A') (A") (A') (A') (A')
                 (A") (A') (A") (A") (A') (A') (A') (A") (A') (A')
                 (A') (A") (A") (A') (A') (A') (A') (A") (A") (A')
                 (A') (A') (A') (A') (A') (A') (A') (A') (A") (A')
                 (A") (A') (A') (A') (A') (A') (A') (A') (A') (A')
                 (A') (A') (A') (A') (A') (A') (A') (A') (A') (A')
                 (A") (A') (A') (A') (A') (A') (A") (A") (A') (A')
                 (A") (A") (A') (A') (A") (A") (A") (A') (A') (A')
                 (A') (A') (A') (A') (A') (A') (A') (A') (A') (A')
                 (A') (A') (A') (A') (A') (A") (A') (A") (A') (A")
                 (A') (A") (A") (A") (A') (A") (A") (A') (A') (A')
                 (A') (A') (A') (A") (A') (A') (A") (A') (A") (A")
                 (A') (A') (A") (A') (A') (A") (A") (A') (A') (A")
                 (A') (A") (A') (A') (A') (A') (A') (A") (A") (A')
                 (A') (A") (A") (A') (A') (A") (A") (A') (A') (A")
                 (A') (A') (A') (A') (A') (A') (A') (A') (A') (A')
                 (A') (A') (A') (A") (A') (A') (A') (A') (A') (A")
                 (A") (A') (A") (A") (A") (A") (A") (A') (A') (A')
                 (A') (A') (A') (A') (A') (A') (A') (A') (A') (A')
                 (A') (A') (A') (A') (A') (A') (A') (A') (A') (A')
                 (A') (A') (A') (A')
 The electronic state is 1-A'.
 Alpha  occ. eigenvalues --  -11.25764 -11.25012 -11.25007 -11.24675 -11.24583
 Alpha  occ. eigenvalues --  -11.24541 -11.24480 -11.22264  -1.14328  -1.07531
 Alpha  occ. eigenvalues --   -1.05484  -0.96568  -0.88458  -0.83401  -0.73079
 Alpha  occ. eigenvalues --   -0.71817  -0.69271  -0.62154  -0.60955  -0.58256
 Alpha  occ. eigenvalues --   -0.56759  -0.52276  -0.51458  -0.50217  -0.48094
 Alpha  occ. eigenvalues --   -0.41099  -0.38906  -0.26408
 Alpha virt. eigenvalues --    0.03837   0.04626   0.04900   0.05846   0.06240
 Alpha virt. eigenvalues --    0.06433   0.08355   0.08372   0.08758   0.11136
 Alpha virt. eigenvalues --    0.12696   0.13474   0.14355   0.14906   0.15967
 Alpha virt. eigenvalues --    0.17033   0.17518   0.17757   0.18490   0.19129
 Alpha virt. eigenvalues --    0.19301   0.19738   0.20043   0.20406   0.20547
 Alpha virt. eigenvalues --    0.20919   0.21531   0.22153   0.22813   0.23592
 Alpha virt. eigenvalues --    0.23821   0.24959   0.25132   0.27769   0.28426
 Alpha virt. eigenvalues --    0.28461   0.29726   0.31624   0.32585   0.32902
 Alpha virt. eigenvalues --    0.33168   0.33426   0.33752   0.34226   0.37270
 Alpha virt. eigenvalues --    0.37625   0.39616   0.41390   0.42011   0.42047
 Alpha virt. eigenvalues --    0.44379   0.44757   0.46014   0.49997   0.53773
 Alpha virt. eigenvalues --    0.56649   0.57020   0.57874   0.59080   0.60626
 Alpha virt. eigenvalues --    0.69776   0.71047   0.71824   0.73230   0.73362
 Alpha virt. eigenvalues --    0.73730   0.74889   0.75406   0.76613   0.76762
 Alpha virt. eigenvalues --    0.78587   0.81128   0.82207   0.84508   0.84568
 Alpha virt. eigenvalues --    0.87198   0.88662   0.91011   0.91370   0.94533
 Alpha virt. eigenvalues --    0.94826   0.98587   0.99903   1.00611   1.01210
 Alpha virt. eigenvalues --    1.02786   1.04790   1.06282   1.06609   1.08978
 Alpha virt. eigenvalues --    1.10385   1.12745   1.15469   1.16876   1.17642
 Alpha virt. eigenvalues --    1.19328   1.19549   1.23733   1.24281   1.27550
 Alpha virt. eigenvalues --    1.27574   1.27575   1.29543   1.33857   1.36059
 Alpha virt. eigenvalues --    1.40091   1.41039   1.45274   1.65521   1.69939
 Alpha virt. eigenvalues --    1.71852   1.72467   1.75252   1.76028   1.77214
 Alpha virt. eigenvalues --    1.78635   1.79235   1.83994   1.86279   1.87701
 Alpha virt. eigenvalues --    1.94723   1.95544   1.95634   1.97303   1.97812
 Alpha virt. eigenvalues --    2.01396   2.02806   2.03703   2.06890   2.10390
 Alpha virt. eigenvalues --    2.15865   2.16438   2.16718   2.18878   2.23492
 Alpha virt. eigenvalues --    2.24425   2.24855   2.25031   2.27853   2.31233
 Alpha virt. eigenvalues --    2.32895   2.36150   2.40057   2.48179   2.48283
 Alpha virt. eigenvalues --    2.53149   2.55425   2.62355   2.67220   2.75989
 Alpha virt. eigenvalues --    2.77411   2.77551   2.79627   2.84461   2.89216
 Alpha virt. eigenvalues --    2.92874   2.93405   2.97407   2.98036   3.00361
 Alpha virt. eigenvalues --    3.00398   3.02269   3.03385   3.03607   3.04017
 Alpha virt. eigenvalues --    3.06680   3.06958   3.07603   3.08910   3.16001
 Alpha virt. eigenvalues --    3.18753   3.22144   3.22486   3.26943   3.33543
 Alpha virt. eigenvalues --    3.38428   3.38453   3.50321   3.61410   3.64000
 Alpha virt. eigenvalues --    3.64947   3.70619   3.76577   3.77950   3.90880
 Alpha virt. eigenvalues --    3.95068   3.97470   4.07771   4.22388   4.37670
 Alpha virt. eigenvalues --    4.38493   4.42515   4.57314   4.63839   4.81810
 Alpha virt. eigenvalues --    5.25884  24.74148  24.96871  24.97109  25.02236
 Alpha virt. eigenvalues --   25.33553  25.33764  25.38629  25.40392
          Condensed to atoms (all electrons):
              1          2          3          4          5          6
     1  C   13.601198  -5.897872  -5.684552   4.051532  -2.431988  -2.033746
     2  C   -5.897872  14.999164   4.050222  -1.395007  -1.537469   3.166298
     3  C   -5.684552   4.050222  13.600921  -5.898666   4.433373  -2.032671
     4  C    4.051532  -1.395007  -5.898666  15.003899  -7.745927   3.166182
     5  C   -2.431988  -1.537469   4.433373  -7.745927  22.118351  -7.848330
     6  C   -2.033746   3.166298  -2.032671   3.166182  -7.848330  22.201320
     7  C    4.433334  -7.741275  -2.430387  -1.537904   0.220595  -7.854948
     8  H   -0.070017  -0.045606   0.268478  -0.441081   1.152488  -0.603066
     9  H    0.268388  -0.440817  -0.069921  -0.045622   0.096297  -0.603162
    10  H   -0.419987   0.791081   0.175056  -0.051992  -0.023924   0.184112
    11  H    0.791367  -0.408429  -0.417228   0.158211  -0.029146  -0.033685
    12  H   -0.417225   0.158216   0.791447  -0.408504   0.212974  -0.033701
    13  H    0.175021  -0.051965  -0.419947   0.791039  -0.399618   0.184039
    14  C   -0.070006   0.458280  -0.070379   0.458868  -1.383334  -3.435542
    15  H   -0.021939   0.022801   0.007989   0.000447   0.127973   0.001118
    16  H    0.007995   0.000529  -0.021937   0.022920  -0.143258   0.000957
              7          8          9         10         11         12
     1  C    4.433334  -0.070017   0.268388  -0.419987   0.791367  -0.417225
     2  C   -7.741275  -0.045606  -0.440817   0.791081  -0.408429   0.158216
     3  C   -2.430387   0.268478  -0.069921   0.175056  -0.417228   0.791447
     4  C   -1.537904  -0.441081  -0.045622  -0.051992   0.158211  -0.408504
     5  C    0.220595   1.152488   0.096297  -0.023924  -0.029146   0.212974
     6  C   -7.854948  -0.603066  -0.603162   0.184112  -0.033685  -0.033701
     7  C   22.120876   0.096138   1.152173  -0.399714   0.212948  -0.029152
     8  H    0.096138   0.657032   0.005218  -0.000385  -0.000873   0.008034
     9  H    1.152173   0.005218   0.656933  -0.051750   0.008031  -0.000873
    10  H   -0.399714  -0.000385  -0.051750   0.614461  -0.033420   0.005522
    11  H    0.212948  -0.000873   0.008031  -0.033420   0.610804  -0.038385
    12  H   -0.029152   0.008034  -0.000873   0.005522  -0.038385   0.610783
    13  H   -0.023965  -0.051757  -0.000386  -0.001007   0.005519  -0.033412
    14  C   -1.384610  -0.121641  -0.121625   0.015083  -0.009787  -0.009797
    15  H   -0.143229   0.003187  -0.002357   0.001017   0.000135  -0.000205
    16  H    0.127850  -0.002376   0.003171   0.000519  -0.000206   0.000134
             13         14         15         16
     1  C    0.175021  -0.070006  -0.021939   0.007995
     2  C   -0.051965   0.458280   0.022801   0.000529
     3  C   -0.419947  -0.070379   0.007989  -0.021937
     4  C    0.791039   0.458868   0.000447   0.022920
     5  C   -0.399618  -1.383334   0.127973  -0.143258
     6  C    0.184039  -3.435542   0.001118   0.000957
     7  C   -0.023965  -1.384610  -0.143229   0.127850
     8  H   -0.051757  -0.121641   0.003187  -0.002376
     9  H   -0.000386  -0.121625  -0.002357   0.003171
    10  H   -0.001007   0.015083   0.001017   0.000519
    11  H    0.005519  -0.009787   0.000135  -0.000206
    12  H   -0.033412  -0.009797  -0.000205   0.000134
    13  H    0.614431   0.015113   0.000518   0.001018
    14  C    0.015113  11.481284   0.334629   0.334745
    15  H    0.000518   0.334629   0.542580  -0.035948
    16  H    0.001018   0.334745  -0.035948   0.542576
 Mulliken atomic charges:
              1
     1  C   -0.281503
     2  C   -0.128151
     3  C   -0.281798
     4  C   -0.128396
     5  C   -0.819058
     6  C    1.574826
     7  C   -0.818732
     8  H    0.146225
     9  H    0.146300
    10  H    0.195328
    11  H    0.184144
    12  H    0.184144
    13  H    0.195359
    14  C   -0.491282
    15  H    0.161283
    16  H    0.161311
 Sum of Mulliken atomic charges =   0.00000
 Mulliken charges with hydrogens summed into heavy atoms:
              1
     1  C   -0.097359
     2  C    0.067177
     3  C   -0.097653
     4  C    0.066963
     5  C   -0.672833
     6  C    1.574826
     7  C   -0.672432
    14  C   -0.168689
 Sum of Mulliken charges with hydrogens summed into heavy atoms =   0.00000
 Electronic spatial extent (au):  <R**2>=            924.3242
 Charge=              0.0000 electrons
 Dipole moment (field-independent basis, Debye):
    X=              0.0002    Y=             -0.6964    Z=              0.0000  Tot=              0.6964
 Quadrupole moment (field-independent basis, Debye-Ang):
   XX=            -43.1230   YY=            -45.1047   ZZ=            -54.4801
   XY=              0.0003   XZ=              0.0000   YZ=              0.0000
 Traceless Quadrupole moment (field-independent basis, Debye-Ang):
   XX=              4.4463   YY=              2.4646   ZZ=             -6.9109
   XY=              0.0003   XZ=              0.0000   YZ=              0.0000
 Octapole moment (field-independent basis, Debye-Ang**2):
  XXX=              0.0019  YYY=             -8.4740  ZZZ=              0.0000  XYY=             -0.0002
  XXY=             -0.9168  XXZ=              0.0000  XZZ=              0.0005  YZZ=             -1.2663
  YYZ=              0.0000  XYZ=              0.0000
 Hexadecapole moment (field-independent basis, Debye-Ang**3):
 XXXX=           -426.4113 YYYY=           -766.5030 ZZZZ=            -68.5551 XXXY=              0.0138
 XXXZ=              0.0000 YYYX=              0.0243 YYYZ=              0.0000 ZZZX=              0.0000
 ZZZY=              0.0000 XXYY=           -187.7526 XXZZ=            -98.4428 YYZZ=           -165.8986
 XXYZ=              0.0000 YYXZ=              0.0000 ZZXY=              0.0071
 N-N= 3.206018742980D+02 E-N=-1.357760210252D+03  KE= 3.085820690110D+02
 Symmetry A'   KE= 2.999728131427D+02
 Symmetry A"   KE= 8.609255868317D+00
 No NMR shielding tensors so no spin-rotation constants.
 Leave Link  601 at Wed Dec 22 17:40:00 2021, MaxMem=  498073600 cpu:       2.0
 (Enter /apps/software//g09/l9999.exe)
 1\1\GINC-DLT01\SP\RMP2-FC\6-311++G(d,p)\C8H8\ITAMAR\22-Dec-2021\0\\#P 
 MP2/6-311++G** DENSITY=MP2\\Hepta-CH2\\0,1\C,0,0.676294,-1.889034,0.\C
 ,0,1.564903,-0.746685,0.\C,0,-0.675913,-1.889272,0.\C,0,-1.564793,-0.7
 47065,0.\C,0,-1.281978,0.574934,0.\C,0,0.,1.284964,0.\C,0,1.281919,0.5
 75328,0.\H,0,-2.141778,1.240127,0.\H,0,2.141798,1.240404,0.\H,0,2.6214
 65,-0.999615,0.\H,0,1.169078,-2.8566,0.\H,0,-1.168393,-2.856985,0.\H,0
 ,-2.621317,-1.000132,0.\C,0,-0.000382,2.640357,0.\H,0,0.923143,3.20609
 9,0.\H,0,-0.924302,3.205544,0.\\Version=EM64L-G09RevA.02\State=1-A'\HF
 =-307.6069473\MP2=-308.7113456\RMSD=5.297e-09\Dipole=0.0000825,-0.2739
 723,0.\Quadrupole=3.3057082,1.8323429,-5.1380511,0.0002288,0.,0.\PG=CS
  [SG(C8H8)]\\@


 I WANT TO KNOW HOW GOD CREATED THE WORLD.  I AM NOT INTERESTED IN
 THIS OR THAT PHENOMENON, IN THE SPECTRUM OF THIS OR THAT ELEMENT.
 I WANT TO KNOW HIS THOUGHTS, THE REST ARE DETAILS.
     -- ALBERT EINSTEIN
 Job cpu time:  0 days  0 hours 11 minutes 35.6 seconds.
 File lengths (MBytes):  RWF=     25 Int=      0 D2E=      0 Chk=      5 Scr=      1
 Normal termination of Gaussian 09 at Wed Dec 22 17:40:00 2021.
