14-H                                                                    
SP        RMP2-FC                                                     6-311++G(d,p)       
Number of atoms                            I               12
Info1-9                                    I   N=           9
          22          21           0           0           0         110
           1           2           1
Charge                                     I                0
Multiplicity                               I                1
Number of electrons                        I               42
Number of alpha electrons                  I               21
Number of beta electrons                   I               21
Number of basis functions                  I              174
Number of independent functions            I              173
Number of point charges in /Mol/           I                0
Number of translation vectors              I                0
Atomic numbers                             I   N=          12
           6           6           6           6           6           6
           1           1           1           1           1           1
Nuclear charges                            R   N=          12
  6.00000000E+00  6.00000000E+00  6.00000000E+00  6.00000000E+00  6.00000000E+00
  6.00000000E+00  1.00000000E+00  1.00000000E+00  1.00000000E+00  1.00000000E+00
  1.00000000E+00  1.00000000E+00
Current cartesian coordinates              R   N=          36
 -1.32348898E-23  2.63553112E+00  2.11917347E-39 -2.28243690E+00  1.31776556E+00
  1.47911420E-31 -2.28243690E+00 -1.31776556E+00  1.47911420E-31 -3.22759456E-16
 -2.63553112E+00  2.35050838E-39  2.28243690E+00 -1.31776556E+00 -9.86076132E-32
  2.28243690E+00  1.31776556E+00 -1.47911420E-31 -5.29395592E-23  4.68479927E+00
  4.42065519E-39 -4.05715518E+00  2.34239963E+00  3.94430453E-31 -4.05715518E+00
 -2.34239963E+00  3.94430453E-31 -5.73722361E-16 -4.68479927E+00  5.47558754E-40
  4.05715518E+00 -2.34239963E+00 -2.95822839E-31  4.05715518E+00  2.34239963E+00
 -3.94430453E-31
Force Field                                I                0
Int Atom Types                             I   N=          12
           0           0           0           0           0           0
           0           0           0           0           0           0
MM charges                                 R   N=          12
  0.00000000E+00  0.00000000E+00  0.00000000E+00  0.00000000E+00  0.00000000E+00
  0.00000000E+00  0.00000000E+00  0.00000000E+00  0.00000000E+00  0.00000000E+00
  0.00000000E+00  0.00000000E+00
Integer atomic weights                     I   N=          12
          12          12          12          12          12          12
           1           1           1           1           1           1
Real atomic weights                        R   N=          12
  1.20000000E+01  1.20000000E+01  1.20000000E+01  1.20000000E+01  1.20000000E+01
  1.20000000E+01  1.00782504E+00  1.00782504E+00  1.00782504E+00  1.00782504E+00
  1.00782504E+00  1.00782504E+00
Atom fragment info                         I   N=          12
           0           0           0           0           0           0
           0           0           0           0           0           0
Atom residue num                           I   N=          12
           0           0           0           0           0           0
           0           0           0           0           0           0
Nuclear spins                              I   N=          12
           0           0           0           0           0           0
           1           1           1           1           1           1
Nuclear ZEff                               R   N=          12
 -3.60000000E+00 -3.60000000E+00 -3.60000000E+00 -3.60000000E+00 -3.60000000E+00
 -3.60000000E+00 -1.00000000E+00 -1.00000000E+00 -1.00000000E+00 -1.00000000E+00
 -1.00000000E+00 -1.00000000E+00
Nuclear QMom                               R   N=          12
  0.00000000E+00  0.00000000E+00  0.00000000E+00  0.00000000E+00  0.00000000E+00
  0.00000000E+00  0.00000000E+00  0.00000000E+00  0.00000000E+00  0.00000000E+00
  0.00000000E+00  0.00000000E+00
Nuclear GFac                               R   N=          12
  0.00000000E+00  0.00000000E+00  0.00000000E+00  0.00000000E+00  0.00000000E+00
  0.00000000E+00  2.79284600E+00  2.79284600E+00  2.79284600E+00  2.79284600E+00
  2.79284600E+00  2.79284600E+00
MicOpt                                     I   N=          12
          -1          -1          -1          -1          -1          -1
          -1          -1          -1          -1          -1          -1
Number of contracted shells                I               66
Number of primitive shells                 I              120
Pure/Cartesian d shells                    I                0
Pure/Cartesian f shells                    I                0
Highest angular momentum                   I                2
Largest degree of contraction              I                6
Shell types                                I   N=          66
           0          -1          -1          -1          -1          -2
           0          -1          -1          -1          -1          -2
           0          -1          -1          -1          -1          -2
           0          -1          -1          -1          -1          -2
           0          -1          -1          -1          -1          -2
           0          -1          -1          -1          -1          -2
           0           0           0           0           1           0
           0           0           0           1           0           0
           0           0           1           0           0           0
           0           1           0           0           0           0
           1           0           0           0           0           1
Number of primitives per shell             I   N=          66
           6           3           1           1           1           1
           6           3           1           1           1           1
           6           3           1           1           1           1
           6           3           1           1           1           1
           6           3           1           1           1           1
           6           3           1           1           1           1
           3           1           1           1           1           3
           1           1           1           1           3           1
           1           1           1           3           1           1
           1           1           3           1           1           1
           1           3           1           1           1           1
Shell to atom map                          I   N=          66
           1           1           1           1           1           1
           2           2           2           2           2           2
           3           3           3           3           3           3
           4           4           4           4           4           4
           5           5           5           5           5           5
           6           6           6           6           6           6
           7           7           7           7           7           8
           8           8           8           8           9           9
           9           9           9          10          10          10
          10          10          11          11          11          11
          11          12          12          12          12          12
Primitive exponents                        R   N=         120
  4.56324000E+03  6.82024000E+02  1.54973000E+02  4.44553000E+01  1.30290000E+01
  1.82773000E+00  2.09642000E+01  4.80331000E+00  1.45933000E+00  4.83456000E-01
  1.45585000E-01  4.38000000E-02  6.26000000E-01  4.56324000E+03  6.82024000E+02
  1.54973000E+02  4.44553000E+01  1.30290000E+01  1.82773000E+00  2.09642000E+01
  4.80331000E+00  1.45933000E+00  4.83456000E-01  1.45585000E-01  4.38000000E-02
  6.26000000E-01  4.56324000E+03  6.82024000E+02  1.54973000E+02  4.44553000E+01
  1.30290000E+01  1.82773000E+00  2.09642000E+01  4.80331000E+00  1.45933000E+00
  4.83456000E-01  1.45585000E-01  4.38000000E-02  6.26000000E-01  4.56324000E+03
  6.82024000E+02  1.54973000E+02  4.44553000E+01  1.30290000E+01  1.82773000E+00
  2.09642000E+01  4.80331000E+00  1.45933000E+00  4.83456000E-01  1.45585000E-01
  4.38000000E-02  6.26000000E-01  4.56324000E+03  6.82024000E+02  1.54973000E+02
  4.44553000E+01  1.30290000E+01  1.82773000E+00  2.09642000E+01  4.80331000E+00
  1.45933000E+00  4.83456000E-01  1.45585000E-01  4.38000000E-02  6.26000000E-01
  4.56324000E+03  6.82024000E+02  1.54973000E+02  4.44553000E+01  1.30290000E+01
  1.82773000E+00  2.09642000E+01  4.80331000E+00  1.45933000E+00  4.83456000E-01
  1.45585000E-01  4.38000000E-02  6.26000000E-01  3.38650000E+01  5.09479000E+00
  1.15879000E+00  3.25840000E-01  1.02741000E-01  3.60000000E-02  7.50000000E-01
  3.38650000E+01  5.09479000E+00  1.15879000E+00  3.25840000E-01  1.02741000E-01
  3.60000000E-02  7.50000000E-01  3.38650000E+01  5.09479000E+00  1.15879000E+00
  3.25840000E-01  1.02741000E-01  3.60000000E-02  7.50000000E-01  3.38650000E+01
  5.09479000E+00  1.15879000E+00  3.25840000E-01  1.02741000E-01  3.60000000E-02
  7.50000000E-01  3.38650000E+01  5.09479000E+00  1.15879000E+00  3.25840000E-01
  1.02741000E-01  3.60000000E-02  7.50000000E-01  3.38650000E+01  5.09479000E+00
  1.15879000E+00  3.25840000E-01  1.02741000E-01  3.60000000E-02  7.50000000E-01
Contraction coefficients                   R   N=         120
  1.96665025E-03  1.52306019E-02  7.61269097E-02  2.60801033E-01  6.16462078E-01
  2.21006028E-01  1.14660081E-01  9.19999648E-01 -3.03068213E-03  1.00000000E+00
  1.00000000E+00  1.00000000E+00  1.00000000E+00  1.96665025E-03  1.52306019E-02
  7.61269097E-02  2.60801033E-01  6.16462078E-01  2.21006028E-01  1.14660081E-01
  9.19999648E-01 -3.03068213E-03  1.00000000E+00  1.00000000E+00  1.00000000E+00
  1.00000000E+00  1.96665025E-03  1.52306019E-02  7.61269097E-02  2.60801033E-01
  6.16462078E-01  2.21006028E-01  1.14660081E-01  9.19999648E-01 -3.03068213E-03
  1.00000000E+00  1.00000000E+00  1.00000000E+00  1.00000000E+00  1.96665025E-03
  1.52306019E-02  7.61269097E-02  2.60801033E-01  6.16462078E-01  2.21006028E-01
  1.14660081E-01  9.19999648E-01 -3.03068213E-03  1.00000000E+00  1.00000000E+00
  1.00000000E+00  1.00000000E+00  1.96665025E-03  1.52306019E-02  7.61269097E-02
  2.60801033E-01  6.16462078E-01  2.21006028E-01  1.14660081E-01  9.19999648E-01
 -3.03068213E-03  1.00000000E+00  1.00000000E+00  1.00000000E+00  1.00000000E+00
  1.96665025E-03  1.52306019E-02  7.61269097E-02  2.60801033E-01  6.16462078E-01
  2.21006028E-01  1.14660081E-01  9.19999648E-01 -3.03068213E-03  1.00000000E+00
  1.00000000E+00  1.00000000E+00  1.00000000E+00  2.54938145E-02  1.90373109E-01
  8.52161486E-01  1.00000000E+00  1.00000000E+00  1.00000000E+00  1.00000000E+00
  2.54938145E-02  1.90373109E-01  8.52161486E-01  1.00000000E+00  1.00000000E+00
  1.00000000E+00  1.00000000E+00  2.54938145E-02  1.90373109E-01  8.52161486E-01
  1.00000000E+00  1.00000000E+00  1.00000000E+00  1.00000000E+00  2.54938145E-02
  1.90373109E-01  8.52161486E-01  1.00000000E+00  1.00000000E+00  1.00000000E+00
  1.00000000E+00  2.54938145E-02  1.90373109E-01  8.52161486E-01  1.00000000E+00
  1.00000000E+00  1.00000000E+00  1.00000000E+00  2.54938145E-02  1.90373109E-01
  8.52161486E-01  1.00000000E+00  1.00000000E+00  1.00000000E+00  1.00000000E+00
P(S=P) Contraction coefficients            R   N=         120
  0.00000000E+00  0.00000000E+00  0.00000000E+00  0.00000000E+00  0.00000000E+00
  0.00000000E+00  4.02486927E-02  2.37593957E-01  8.15853851E-01  1.00000000E+00
  1.00000000E+00  1.00000000E+00  0.00000000E+00  0.00000000E+00  0.00000000E+00
  0.00000000E+00  0.00000000E+00  0.00000000E+00  0.00000000E+00  4.02486927E-02
  2.37593957E-01  8.15853851E-01  1.00000000E+00  1.00000000E+00  1.00000000E+00
  0.00000000E+00  0.00000000E+00  0.00000000E+00  0.00000000E+00  0.00000000E+00
  0.00000000E+00  0.00000000E+00  4.02486927E-02  2.37593957E-01  8.15853851E-01
  1.00000000E+00  1.00000000E+00  1.00000000E+00  0.00000000E+00  0.00000000E+00
  0.00000000E+00  0.00000000E+00  0.00000000E+00  0.00000000E+00  0.00000000E+00
  4.02486927E-02  2.37593957E-01  8.15853851E-01  1.00000000E+00  1.00000000E+00
  1.00000000E+00  0.00000000E+00  0.00000000E+00  0.00000000E+00  0.00000000E+00
  0.00000000E+00  0.00000000E+00  0.00000000E+00  4.02486927E-02  2.37593957E-01
  8.15853851E-01  1.00000000E+00  1.00000000E+00  1.00000000E+00  0.00000000E+00
  0.00000000E+00  0.00000000E+00  0.00000000E+00  0.00000000E+00  0.00000000E+00
  0.00000000E+00  4.02486927E-02  2.37593957E-01  8.15853851E-01  1.00000000E+00
  1.00000000E+00  1.00000000E+00  0.00000000E+00  0.00000000E+00  0.00000000E+00
  0.00000000E+00  0.00000000E+00  0.00000000E+00  0.00000000E+00  0.00000000E+00
  0.00000000E+00  0.00000000E+00  0.00000000E+00  0.00000000E+00  0.00000000E+00
  0.00000000E+00  0.00000000E+00  0.00000000E+00  0.00000000E+00  0.00000000E+00
  0.00000000E+00  0.00000000E+00  0.00000000E+00  0.00000000E+00  0.00000000E+00
  0.00000000E+00  0.00000000E+00  0.00000000E+00  0.00000000E+00  0.00000000E+00
  0.00000000E+00  0.00000000E+00  0.00000000E+00  0.00000000E+00  0.00000000E+00
  0.00000000E+00  0.00000000E+00  0.00000000E+00  0.00000000E+00  0.00000000E+00
  0.00000000E+00  0.00000000E+00  0.00000000E+00  0.00000000E+00  0.00000000E+00
Coordinates of each shell                  R   N=         198
 -8.72024098E-24  2.63553112E+00  2.48359110E-40 -8.72024098E-24  2.63553112E+00
  2.48359110E-40 -8.72024098E-24  2.63553112E+00  2.48359110E-40 -8.72024098E-24
  2.63553112E+00  2.48359110E-40 -8.72024098E-24  2.63553112E+00  2.48359110E-40
 -8.72024098E-24  2.63553112E+00  2.48359110E-40 -2.28243690E+00  1.31776556E+00
  1.09349850E-31 -2.28243690E+00  1.31776556E+00  1.09349850E-31 -2.28243690E+00
  1.31776556E+00  1.09349850E-31 -2.28243690E+00  1.31776556E+00  1.09349850E-31
 -2.28243690E+00  1.31776556E+00  1.09349850E-31 -2.28243690E+00  1.31776556E+00
  1.09349850E-31 -2.28243690E+00 -1.31776556E+00  1.09349848E-31 -2.28243690E+00
 -1.31776556E+00  1.09349848E-31 -2.28243690E+00 -1.31776556E+00  1.09349848E-31
 -2.28243690E+00 -1.31776556E+00  1.09349848E-31 -2.28243690E+00 -1.31776556E+00
  1.09349848E-31 -2.28243690E+00 -1.31776556E+00  1.09349848E-31 -3.22759445E-16
 -2.63553112E+00  2.18464157E-39 -3.22759445E-16 -2.63553112E+00  2.18464157E-39
 -3.22759445E-16 -2.63553112E+00  2.18464157E-39 -3.22759445E-16 -2.63553112E+00
  2.18464157E-39 -3.22759445E-16 -2.63553112E+00  2.18464157E-39 -3.22759445E-16
 -2.63553112E+00  2.18464157E-39  2.28243690E+00 -1.31776556E+00 -5.30773010E-32
  2.28243690E+00 -1.31776556E+00 -5.30773010E-32  2.28243690E+00 -1.31776556E+00
 -5.30773010E-32  2.28243690E+00 -1.31776556E+00 -5.30773010E-32  2.28243690E+00
 -1.31776556E+00 -5.30773010E-32  2.28243690E+00 -1.31776556E+00 -5.30773010E-32
  2.28243690E+00  1.31776556E+00 -8.55627243E-32  2.28243690E+00  1.31776556E+00
 -8.55627243E-32  2.28243690E+00  1.31776556E+00 -8.55627243E-32  2.28243690E+00
  1.31776556E+00 -8.55627243E-32  2.28243690E+00  1.31776556E+00 -8.55627243E-32
  2.28243690E+00  1.31776556E+00 -8.55627243E-32 -1.55007005E-23  4.68479927E+00
  4.41471766E-40 -1.55007005E-23  4.68479927E+00  4.41471766E-40 -1.55007005E-23
  4.68479927E+00  4.41471766E-40 -1.55007005E-23  4.68479927E+00  4.41471766E-40
 -1.55007005E-23  4.68479927E+00  4.41471766E-40 -4.05715518E+00  2.34239963E+00
  1.94375280E-31 -4.05715518E+00  2.34239963E+00  1.94375280E-31 -4.05715518E+00
  2.34239963E+00  1.94375280E-31 -4.05715518E+00  2.34239963E+00  1.94375280E-31
 -4.05715518E+00  2.34239963E+00  1.94375280E-31 -4.05715518E+00 -2.34239963E+00
  1.94375277E-31 -4.05715518E+00 -2.34239963E+00  1.94375277E-31 -4.05715518E+00
 -2.34239963E+00  1.94375277E-31 -4.05715518E+00 -2.34239963E+00  1.94375277E-31
 -4.05715518E+00 -2.34239963E+00  1.94375277E-31 -5.73722390E-16 -4.68479927E+00
  3.88331869E-39 -5.73722390E-16 -4.68479927E+00  3.88331869E-39 -5.73722390E-16
 -4.68479927E+00  3.88331869E-39 -5.73722390E-16 -4.68479927E+00  3.88331869E-39
 -5.73722390E-16 -4.68479927E+00  3.88331869E-39  4.05715518E+00 -2.34239963E+00
 -9.43477766E-32  4.05715518E+00 -2.34239963E+00 -9.43477766E-32  4.05715518E+00
 -2.34239963E+00 -9.43477766E-32  4.05715518E+00 -2.34239963E+00 -9.43477766E-32
  4.05715518E+00 -2.34239963E+00 -9.43477766E-32  4.05715518E+00  2.34239963E+00
 -1.52092376E-31  4.05715518E+00  2.34239963E+00 -1.52092376E-31  4.05715518E+00
  2.34239963E+00 -1.52092376E-31  4.05715518E+00  2.34239963E+00 -1.52092376E-31
  4.05715518E+00  2.34239963E+00 -1.52092376E-31
Constraint Structure                       R   N=          36
 -8.72024098E-24  2.63553112E+00  2.48359110E-40 -2.28243690E+00  1.31776556E+00
  1.09349850E-31 -2.28243690E+00 -1.31776556E+00  1.09349848E-31 -3.22759445E-16
 -2.63553112E+00  2.18464157E-39  2.28243690E+00 -1.31776556E+00 -5.30773010E-32
  2.28243690E+00  1.31776556E+00 -8.55627243E-32 -1.55007005E-23  4.68479927E+00
  4.41471766E-40 -4.05715518E+00  2.34239963E+00  1.94375280E-31 -4.05715518E+00
 -2.34239963E+00  1.94375277E-31 -5.73722390E-16 -4.68479927E+00  3.88331869E-39
  4.05715518E+00 -2.34239963E+00 -9.43477766E-32  4.05715518E+00  2.34239963E+00
 -1.52092376E-31
Num ILSW                                   I              100
ILSW                                       I   N=         100
           0           0           0           0           2           0
           0           0           0           0           0          -1
           0           0           0           0           0           0
           0           0           0           0           0           0
           1           0           0           0           0           0
           0           0      100000           0          -1           0
           0           0           0           0           0           0
           0           0           0           1           0           0
           0           0           1           0           0           0
           0           0           4          40           0           0
           0           0           0           0           0           0
           0           0           0           0           0           0
           0           0           0           0           0           0
           0           0           0           0           0           0
           0           0           0           0           0           0
           0           0           0           0           0           0
           0           0           0           0
Num RLSW                                   I               40
RLSW                                       R   N=          40
  1.00000000E+00  1.00000000E+00  1.00000000E+00  1.00000000E+00  1.00000000E+00
  0.00000000E+00  0.00000000E+00  1.00000000E+00  0.00000000E+00  0.00000000E+00
  0.00000000E+00  0.00000000E+00  1.00000000E+00  0.00000000E+00  0.00000000E+00
  0.00000000E+00  0.00000000E+00  1.00000000E+00  0.00000000E+00  0.00000000E+00
  0.00000000E+00  0.00000000E+00  1.00000000E+00  0.00000000E+00  0.00000000E+00
  0.00000000E+00  0.00000000E+00  1.00000000E+00  0.00000000E+00  0.00000000E+00
  0.00000000E+00  0.00000000E+00  0.00000000E+00  0.00000000E+00  0.00000000E+00
  0.00000000E+00  0.00000000E+00  0.00000000E+00  1.00000000E+00  1.00000000E+00
MxBond                                     I                3
NBond                                      I   N=          12
           3           3           3           3           3           3
           1           1           1           1           1           1
IBond                                      I   N=          36
           2           6           7           1           3           8
           2           4           9           3           5          10
           4           6          11           1           5          12
           1           0           0           2           0           0
           3           0           0           4           0           0
           5           0           0           6           0           0
RBond                                      R   N=          36
  1.50000000E+00  1.50000000E+00  1.00000000E+00  1.50000000E+00  1.50000000E+00
  1.00000000E+00  1.50000000E+00  1.50000000E+00  1.00000000E+00  1.50000000E+00
  1.50000000E+00  1.00000000E+00  1.50000000E+00  1.50000000E+00  1.00000000E+00
  1.50000000E+00  1.50000000E+00  1.00000000E+00  1.00000000E+00  0.00000000E+00
  0.00000000E+00  1.00000000E+00  0.00000000E+00  0.00000000E+00  1.00000000E+00
  0.00000000E+00  0.00000000E+00  1.00000000E+00  0.00000000E+00  0.00000000E+00
  1.00000000E+00  0.00000000E+00  0.00000000E+00  1.00000000E+00  0.00000000E+00
  0.00000000E+00
Virial Ratio                               R      2.001294919536002E+00
SCF Energy                                 R     -2.307560795671273E+02
MP2 Energy                                 R     -2.315840244095771E+02
Total Energy                               R     -2.315840244095771E+02
Post-SCF wavefunction norm                 R      1.143329158032044E+00
RMS Density                                R      1.264419196661229E-09
External E-field                           R   N=          35
  0.00000000E+00  0.00000000E+00  0.00000000E+00  0.00000000E+00  0.00000000E+00
  0.00000000E+00  0.00000000E+00  0.00000000E+00  0.00000000E+00  0.00000000E+00
  0.00000000E+00  0.00000000E+00  0.00000000E+00  0.00000000E+00  0.00000000E+00
  0.00000000E+00  0.00000000E+00  0.00000000E+00  0.00000000E+00  0.00000000E+00
  0.00000000E+00  0.00000000E+00  0.00000000E+00  0.00000000E+00  0.00000000E+00
  0.00000000E+00  0.00000000E+00  0.00000000E+00  0.00000000E+00  0.00000000E+00
  0.00000000E+00  0.00000000E+00  0.00000000E+00  0.00000000E+00  0.00000000E+00
IOpCl                                      I                0
IROHF                                      I                0
Alpha Orbital Energies                     R   N=         173
 -1.12391060E+01 -1.12385357E+01 -1.12385357E+01 -1.12373051E+01 -1.12373050E+01
 -1.12367018E+01 -1.15217816E+00 -1.01638523E+00 -1.01638523E+00 -8.25235407E-01
 -8.25235311E-01 -7.10638234E-01 -6.44439956E-01 -6.20807731E-01 -5.89483264E-01
 -5.89483260E-01 -5.02008476E-01 -4.96072746E-01 -4.96072691E-01 -3.37087690E-01
 -3.37087664E-01  4.21130642E-02  4.89576313E-02  4.89595239E-02  6.62531110E-02
  6.62531226E-02  9.78656267E-02  1.09164490E-01  1.09164539E-01  1.29351172E-01
  1.52595856E-01  1.52595910E-01  1.58015059E-01  1.62830019E-01  1.81074391E-01
  1.81074677E-01  1.83399992E-01  1.83405330E-01  1.92487074E-01  2.09195326E-01
  2.12252217E-01  2.12252514E-01  2.16203326E-01  2.16203339E-01  2.28176037E-01
  2.28180565E-01  2.47042011E-01  2.50342023E-01  2.51496059E-01  2.88957168E-01
  2.88957205E-01  3.03070212E-01  3.34205944E-01  3.68475299E-01  4.08098234E-01
  4.08293329E-01  4.10289858E-01  4.29684735E-01  4.29684867E-01  4.98119650E-01
  4.98119911E-01  5.08604919E-01  5.08609202E-01  6.04072621E-01  6.09152513E-01
  7.15386840E-01  7.17517712E-01  7.22727218E-01  7.22752935E-01  7.50250172E-01
  7.50250233E-01  7.50891814E-01  7.57681965E-01  7.57681982E-01  7.96609880E-01
  8.19574765E-01  8.19574802E-01  8.72935364E-01  8.85905769E-01  9.39737910E-01
  9.39799012E-01  9.50708857E-01  9.50708897E-01  9.75266746E-01  1.01594011E+00
  1.01594012E+00  1.05928163E+00  1.05928167E+00  1.10216284E+00  1.12081584E+00
  1.12081619E+00  1.12973858E+00  1.16946728E+00  1.21739219E+00  1.21739220E+00
  1.24906601E+00  1.32318196E+00  1.32318201E+00  1.39099948E+00  1.39099949E+00
  1.49922795E+00  1.55610493E+00  1.71114911E+00  1.78516832E+00  1.78518034E+00
  1.79536088E+00  1.82532728E+00  1.84417164E+00  1.84417168E+00  1.90697595E+00
  1.90697598E+00  1.93223845E+00  1.93224063E+00  1.98962945E+00  2.05399929E+00
  2.05399930E+00  2.10284260E+00  2.10284264E+00  2.12822409E+00  2.23617516E+00
  2.23617518E+00  2.23879511E+00  2.24760695E+00  2.24763674E+00  2.29511243E+00
  2.34552473E+00  2.34552473E+00  2.37710031E+00  2.37710031E+00  2.63702993E+00
  2.66180193E+00  2.74088190E+00  2.74088193E+00  2.74216807E+00  2.81377603E+00
  2.81379768E+00  2.95871680E+00  2.95873026E+00  2.96863795E+00  2.98863818E+00
  3.02179820E+00  3.02182827E+00  3.02590436E+00  3.04641318E+00  3.04641325E+00
  3.05762443E+00  3.19115022E+00  3.19115026E+00  3.26173290E+00  3.29280763E+00
  3.29280767E+00  3.32488092E+00  3.32488097E+00  3.48091949E+00  3.54700835E+00
  3.77419563E+00  3.77419565E+00  3.90428195E+00  3.90428197E+00  3.91834729E+00
  4.07404616E+00  4.40501330E+00  4.40501333E+00  4.49227508E+00  4.57282365E+00
  4.57283387E+00  5.27705010E+00  2.47467515E+01  2.51343301E+01  2.51343301E+01
  2.52563998E+01  2.52563999E+01  2.53610823E+01
Alpha MO coefficients                      R   N=       30102
  2.29917789E-01  1.90368625E-01  0.00000000E+00 -3.12853917E-05  0.00000000E+00
  2.02681647E-03  0.00000000E+00 -1.83373000E-04  0.00000000E+00 -3.92781427E-04
  0.00000000E+00  1.26172982E-05  0.00000000E+00 -9.85396407E-05  0.00000000E+00
 -1.96134897E-04  0.00000000E+00 -1.16357372E-04  0.00000000E+00  0.00000000E+00
  6.45962095E-05  0.00000000E+00  2.29904033E-01  1.90357232E-01  2.71003568E-05
 -1.56405556E-05  0.00000000E+00  2.02672025E-03  1.58803831E-04 -9.16821115E-05
  0.00000000E+00 -3.92762294E-04 -1.09171125E-05  6.30230186E-06  0.00000000E+00
 -9.87640217E-05  1.69775376E-04 -9.80253063E-05  0.00000000E+00 -1.16345626E-04
  0.00000000E+00  0.00000000E+00 -3.22960796E-05  5.59413944E-05  2.29904033E-01
  1.90357232E-01  2.71003568E-05  1.56405556E-05  0.00000000E+00  2.02672025E-03
  1.58803831E-04  9.16821115E-05  0.00000000E+00 -3.92762294E-04 -1.09171125E-05
 -6.30230186E-06  0.00000000E+00 -9.87640217E-05  1.69775376E-04  9.80253063E-05
  0.00000000E+00 -1.16345626E-04  0.00000000E+00  0.00000000E+00 -3.22960796E-05
 -5.59413944E-05  2.29917789E-01  1.90368625E-01  0.00000000E+00  3.12853917E-05
  0.00000000E+00  2.02681647E-03  0.00000000E+00  1.83373000E-04  0.00000000E+00
 -3.92781427E-04  0.00000000E+00 -1.26172982E-05  0.00000000E+00 -9.85396407E-05
  0.00000000E+00  1.96134897E-04  0.00000000E+00 -1.16357372E-04  0.00000000E+00
  0.00000000E+00  6.45962095E-05  0.00000000E+00  2.29904033E-01  1.90357232E-01
 -2.71003568E-05  1.56405556E-05  0.00000000E+00  2.02672025E-03 -1.58803831E-04
  9.16821115E-05  0.00000000E+00 -3.92762294E-04  1.09171125E-05 -6.30230186E-06
  0.00000000E+00 -9.87640217E-05 -1.69775376E-04  9.80253063E-05  0.00000000E+00
 -1.16345626E-04  0.00000000E+00  0.00000000E+00 -3.22960796E-05  5.59413944E-05
  2.29904033E-01  1.90357232E-01 -2.71003568E-05 -1.56405556E-05  0.00000000E+00
  2.02672025E-03 -1.58803831E-04 -9.16821115E-05  0.00000000E+00 -3.92762294E-04
  1.09171125E-05  6.30230186E-06  0.00000000E+00 -9.87640217E-05 -1.69775376E-04
 -9.80253063E-05  0.00000000E+00 -1.16345626E-04  0.00000000E+00  0.00000000E+00
 -3.22960796E-05 -5.59413944E-05  1.77566961E-04 -1.63174600E-05  2.47384834E-04
  9.03949539E-05  0.00000000E+00 -3.12220981E-05  0.00000000E+00  1.77556482E-04
 -1.63098420E-05  2.47372120E-04  9.03580627E-05  2.70397530E-05 -1.56109426E-05
  0.00000000E+00  1.77556482E-04 -1.63098420E-05  2.47372120E-04  9.03580627E-05
  2.70397530E-05  1.56109426E-05  0.00000000E+00  1.77566961E-04 -1.63174600E-05
  2.47384834E-04  9.03949539E-05  0.00000000E+00  3.12220981E-05  0.00000000E+00
  1.77556482E-04 -1.63098420E-05  2.47372120E-04  9.03580627E-05 -2.70397530E-05
  1.56109426E-05  0.00000000E+00  1.77556482E-04 -1.63098420E-05  2.47372120E-04
  9.03580627E-05 -2.70397530E-05 -1.56109426E-05  0.00000000E+00  3.25190383E-01
  2.69294351E-01  0.00000000E+00 -5.97664857E-06  0.00000000E+00  2.66383669E-03
  0.00000000E+00 -1.39630796E-04  0.00000000E+00 -3.40974530E-04  0.00000000E+00
 -1.17550674E-05  0.00000000E+00 -1.72767561E-03  0.00000000E+00 -1.12984394E-03
  0.00000000E+00 -1.94642871E-04  0.00000000E+00  0.00000000E+00  8.64493045E-05
  0.00000000E+00  1.62585654E-01  1.34639288E-01  8.31050319E-05  1.37919088E-04
  0.00000000E+00  1.33167147E-03  1.24629255E-04  7.62296676E-05  0.00000000E+00
 -1.62669495E-04 -8.66365664E-05 -1.77097457E-04  0.00000000E+00 -5.24724158E-04
  1.06785440E-03  5.54129579E-04  0.00000000E+00 -9.73087736E-05  0.00000000E+00
  0.00000000E+00  5.82550837E-05  8.36678578E-05 -1.62585654E-01 -1.34639288E-01
 -8.31050319E-05  1.37919088E-04  0.00000000E+00 -1.33167147E-03 -1.24629255E-04
  7.62296676E-05  0.00000000E+00  1.62669495E-04  8.66365664E-05 -1.77097457E-04
  0.00000000E+00  5.24724158E-04 -1.06785440E-03  5.54129579E-04  0.00000000E+00
  9.73087736E-05  0.00000000E+00  0.00000000E+00 -5.82550837E-05  8.36678578E-05
 -3.25190383E-01 -2.69294351E-01  0.00000000E+00 -5.97664857E-06  0.00000000E+00
 -2.66383669E-03  0.00000000E+00 -1.39630796E-04  0.00000000E+00  3.40974530E-04
  0.00000000E+00 -1.17550674E-05  0.00000000E+00  1.72767561E-03  0.00000000E+00
 -1.12984394E-03  0.00000000E+00  1.94642871E-04  0.00000000E+00  0.00000000E+00
 -8.64493045E-05  0.00000000E+00 -1.62585654E-01 -1.34639288E-01  8.31050319E-05
  1.37919088E-04  0.00000000E+00 -1.33167147E-03  1.24629255E-04  7.62296676E-05
  0.00000000E+00  1.62669495E-04 -8.66365664E-05 -1.77097457E-04  0.00000000E+00
  5.24724158E-04  1.06785440E-03  5.54129579E-04  0.00000000E+00  9.73087736E-05
  0.00000000E+00  0.00000000E+00 -5.82550837E-05 -8.36678578E-05  1.62585654E-01
  1.34639288E-01 -8.31050319E-05  1.37919088E-04  0.00000000E+00  1.33167147E-03
 -1.24629255E-04  7.62296676E-05  0.00000000E+00 -1.62669495E-04  8.66365664E-05