Clamp-15                                                                
SP        RMP2-FC                                                     6-311++G(d,p)       
Number of atoms                            I               12
Info1-9                                    I   N=           9
          22          21           0           0           0         110
           1           2           1
Charge                                     I                0
Multiplicity                               I                1
Number of electrons                        I               42
Number of alpha electrons                  I               21
Number of beta electrons                   I               21
Number of basis functions                  I              174
Number of independent functions            I              174
Number of point charges in /Mol/           I                0
Number of translation vectors              I                0
Atomic numbers                             I   N=          12
           6           6           6           6           6           6
           1           1           1           1           1           1
Nuclear charges                            R   N=          12
  6.00000000E+00  6.00000000E+00  6.00000000E+00  6.00000000E+00  6.00000000E+00
  6.00000000E+00  1.00000000E+00  1.00000000E+00  1.00000000E+00  1.00000000E+00
  1.00000000E+00  1.00000000E+00
Current cartesian coordinates              R   N=          36
  0.00000000E+00  2.64852865E+00  2.97884729E-02  0.00000000E+00  1.35001279E+00
  2.27873832E+00 -1.65328884E-16 -1.35001279E+00  2.27873832E+00 -3.24351214E-16
 -2.64852865E+00  2.97884729E-02  0.00000000E+00 -1.29845539E+00 -2.30852085E+00
  1.59014924E-16  1.29845539E+00 -2.30852085E+00  0.00000000E+00  4.62746120E+00
 -5.00497026E-01  0.00000000E+00  1.88027372E+00  4.25768976E+00 -2.30267120E-16
 -1.88027372E+00  4.25768976E+00 -5.66700555E-16 -4.62746120E+00 -5.00497026E-01
  0.00000000E+00 -2.74711378E+00 -3.75722837E+00  3.36424409E-16  2.74711378E+00
 -3.75722837E+00
Force Field                                I                0
Int Atom Types                             I   N=          12
           0           0           0           0           0           0
           0           0           0           0           0           0
MM charges                                 R   N=          12
  0.00000000E+00  0.00000000E+00  0.00000000E+00  0.00000000E+00  0.00000000E+00
  0.00000000E+00  0.00000000E+00  0.00000000E+00  0.00000000E+00  0.00000000E+00
  0.00000000E+00  0.00000000E+00
Integer atomic weights                     I   N=          12
          12          12          12          12          12          12
           1           1           1           1           1           1
Real atomic weights                        R   N=          12
  1.20000000E+01  1.20000000E+01  1.20000000E+01  1.20000000E+01  1.20000000E+01
  1.20000000E+01  1.00782504E+00  1.00782504E+00  1.00782504E+00  1.00782504E+00
  1.00782504E+00  1.00782504E+00
Atom fragment info                         I   N=          12
           0           0           0           0           0           0
           0           0           0           0           0           0
Atom residue num                           I   N=          12
           0           0           0           0           0           0
           0           0           0           0           0           0
Nuclear spins                              I   N=          12
           0           0           0           0           0           0
           1           1           1           1           1           1
Nuclear ZEff                               R   N=          12
 -3.60000000E+00 -3.60000000E+00 -3.60000000E+00 -3.60000000E+00 -3.60000000E+00
 -3.60000000E+00 -1.00000000E+00 -1.00000000E+00 -1.00000000E+00 -1.00000000E+00
 -1.00000000E+00 -1.00000000E+00
Nuclear QMom                               R   N=          12
  0.00000000E+00  0.00000000E+00  0.00000000E+00  0.00000000E+00  0.00000000E+00
  0.00000000E+00  0.00000000E+00  0.00000000E+00  0.00000000E+00  0.00000000E+00
  0.00000000E+00  0.00000000E+00
Nuclear GFac                               R   N=          12
  0.00000000E+00  0.00000000E+00  0.00000000E+00  0.00000000E+00  0.00000000E+00
  0.00000000E+00  2.79284600E+00  2.79284600E+00  2.79284600E+00  2.79284600E+00
  2.79284600E+00  2.79284600E+00
MicOpt                                     I   N=          12
          -1          -1          -1          -1          -1          -1
          -1          -1          -1          -1          -1          -1
Number of contracted shells                I               66
Number of primitive shells                 I              120
Pure/Cartesian d shells                    I                0
Pure/Cartesian f shells                    I                0
Highest angular momentum                   I                2
Largest degree of contraction              I                6
Shell types                                I   N=          66
           0          -1          -1          -1          -1          -2
           0          -1          -1          -1          -1          -2
           0          -1          -1          -1          -1          -2
           0          -1          -1          -1          -1          -2
           0          -1          -1          -1          -1          -2
           0          -1          -1          -1          -1          -2
           0           0           0           0           1           0
           0           0           0           1           0           0
           0           0           1           0           0           0
           0           1           0           0           0           0
           1           0           0           0           0           1
Number of primitives per shell             I   N=          66
           6           3           1           1           1           1
           6           3           1           1           1           1
           6           3           1           1           1           1
           6           3           1           1           1           1
           6           3           1           1           1           1
           6           3           1           1           1           1
           3           1           1           1           1           3
           1           1           1           1           3           1
           1           1           1           3           1           1
           1           1           3           1           1           1
           1           3           1           1           1           1
Shell to atom map                          I   N=          66
           1           1           1           1           1           1
           2           2           2           2           2           2
           3           3           3           3           3           3
           4           4           4           4           4           4
           5           5           5           5           5           5
           6           6           6           6           6           6
           7           7           7           7           7           8
           8           8           8           8           9           9
           9           9           9          10          10          10
          10          10          11          11          11          11
          11          12          12          12          12          12
Primitive exponents                        R   N=         120
  4.56324000E+03  6.82024000E+02  1.54973000E+02  4.44553000E+01  1.30290000E+01
  1.82773000E+00  2.09642000E+01  4.80331000E+00  1.45933000E+00  4.83456000E-01
  1.45585000E-01  4.38000000E-02  6.26000000E-01  4.56324000E+03  6.82024000E+02
  1.54973000E+02  4.44553000E+01  1.30290000E+01  1.82773000E+00  2.09642000E+01
  4.80331000E+00  1.45933000E+00  4.83456000E-01  1.45585000E-01  4.38000000E-02
  6.26000000E-01  4.56324000E+03  6.82024000E+02  1.54973000E+02  4.44553000E+01
  1.30290000E+01  1.82773000E+00  2.09642000E+01  4.80331000E+00  1.45933000E+00
  4.83456000E-01  1.45585000E-01  4.38000000E-02  6.26000000E-01  4.56324000E+03
  6.82024000E+02  1.54973000E+02  4.44553000E+01  1.30290000E+01  1.82773000E+00
  2.09642000E+01  4.80331000E+00  1.45933000E+00  4.83456000E-01  1.45585000E-01
  4.38000000E-02  6.26000000E-01  4.56324000E+03  6.82024000E+02  1.54973000E+02
  4.44553000E+01  1.30290000E+01  1.82773000E+00  2.09642000E+01  4.80331000E+00
  1.45933000E+00  4.83456000E-01  1.45585000E-01  4.38000000E-02  6.26000000E-01
  4.56324000E+03  6.82024000E+02  1.54973000E+02  4.44553000E+01  1.30290000E+01
  1.82773000E+00  2.09642000E+01  4.80331000E+00  1.45933000E+00  4.83456000E-01
  1.45585000E-01  4.38000000E-02  6.26000000E-01  3.38650000E+01  5.09479000E+00
  1.15879000E+00  3.25840000E-01  1.02741000E-01  3.60000000E-02  7.50000000E-01
  3.38650000E+01  5.09479000E+00  1.15879000E+00  3.25840000E-01  1.02741000E-01
  3.60000000E-02  7.50000000E-01  3.38650000E+01  5.09479000E+00  1.15879000E+00
  3.25840000E-01  1.02741000E-01  3.60000000E-02  7.50000000E-01  3.38650000E+01
  5.09479000E+00  1.15879000E+00  3.25840000E-01  1.02741000E-01  3.60000000E-02
  7.50000000E-01  3.38650000E+01  5.09479000E+00  1.15879000E+00  3.25840000E-01
  1.02741000E-01  3.60000000E-02  7.50000000E-01  3.38650000E+01  5.09479000E+00
  1.15879000E+00  3.25840000E-01  1.02741000E-01  3.60000000E-02  7.50000000E-01
Contraction coefficients                   R   N=         120
  1.96665025E-03  1.52306019E-02  7.61269097E-02  2.60801033E-01  6.16462078E-01
  2.21006028E-01  1.14660081E-01  9.19999648E-01 -3.03068213E-03  1.00000000E+00
  1.00000000E+00  1.00000000E+00  1.00000000E+00  1.96665025E-03  1.52306019E-02
  7.61269097E-02  2.60801033E-01  6.16462078E-01  2.21006028E-01  1.14660081E-01
  9.19999648E-01 -3.03068213E-03  1.00000000E+00  1.00000000E+00  1.00000000E+00
  1.00000000E+00  1.96665025E-03  1.52306019E-02  7.61269097E-02  2.60801033E-01
  6.16462078E-01  2.21006028E-01  1.14660081E-01  9.19999648E-01 -3.03068213E-03
  1.00000000E+00  1.00000000E+00  1.00000000E+00  1.00000000E+00  1.96665025E-03
  1.52306019E-02  7.61269097E-02  2.60801033E-01  6.16462078E-01  2.21006028E-01
  1.14660081E-01  9.19999648E-01 -3.03068213E-03  1.00000000E+00  1.00000000E+00
  1.00000000E+00  1.00000000E+00  1.96665025E-03  1.52306019E-02  7.61269097E-02
  2.60801033E-01  6.16462078E-01  2.21006028E-01  1.14660081E-01  9.19999648E-01
 -3.03068213E-03  1.00000000E+00  1.00000000E+00  1.00000000E+00  1.00000000E+00
  1.96665025E-03  1.52306019E-02  7.61269097E-02  2.60801033E-01  6.16462078E-01
  2.21006028E-01  1.14660081E-01  9.19999648E-01 -3.03068213E-03  1.00000000E+00
  1.00000000E+00  1.00000000E+00  1.00000000E+00  2.54938145E-02  1.90373109E-01
  8.52161486E-01  1.00000000E+00  1.00000000E+00  1.00000000E+00  1.00000000E+00
  2.54938145E-02  1.90373109E-01  8.52161486E-01  1.00000000E+00  1.00000000E+00
  1.00000000E+00  1.00000000E+00  2.54938145E-02  1.90373109E-01  8.52161486E-01
  1.00000000E+00  1.00000000E+00  1.00000000E+00  1.00000000E+00  2.54938145E-02
  1.90373109E-01  8.52161486E-01  1.00000000E+00  1.00000000E+00  1.00000000E+00
  1.00000000E+00  2.54938145E-02  1.90373109E-01  8.52161486E-01  1.00000000E+00
  1.00000000E+00  1.00000000E+00  1.00000000E+00  2.54938145E-02  1.90373109E-01
  8.52161486E-01  1.00000000E+00  1.00000000E+00  1.00000000E+00  1.00000000E+00
P(S=P) Contraction coefficients            R   N=         120
  0.00000000E+00  0.00000000E+00  0.00000000E+00  0.00000000E+00  0.00000000E+00
  0.00000000E+00  4.02486927E-02  2.37593957E-01  8.15853851E-01  1.00000000E+00
  1.00000000E+00  1.00000000E+00  0.00000000E+00  0.00000000E+00  0.00000000E+00
  0.00000000E+00  0.00000000E+00  0.00000000E+00  0.00000000E+00  4.02486927E-02
  2.37593957E-01  8.15853851E-01  1.00000000E+00  1.00000000E+00  1.00000000E+00
  0.00000000E+00  0.00000000E+00  0.00000000E+00  0.00000000E+00  0.00000000E+00
  0.00000000E+00  0.00000000E+00  4.02486927E-02  2.37593957E-01  8.15853851E-01
  1.00000000E+00  1.00000000E+00  1.00000000E+00  0.00000000E+00  0.00000000E+00
  0.00000000E+00  0.00000000E+00  0.00000000E+00  0.00000000E+00  0.00000000E+00
  4.02486927E-02  2.37593957E-01  8.15853851E-01  1.00000000E+00  1.00000000E+00
  1.00000000E+00  0.00000000E+00  0.00000000E+00  0.00000000E+00  0.00000000E+00
  0.00000000E+00  0.00000000E+00  0.00000000E+00  4.02486927E-02  2.37593957E-01
  8.15853851E-01  1.00000000E+00  1.00000000E+00  1.00000000E+00  0.00000000E+00
  0.00000000E+00  0.00000000E+00  0.00000000E+00  0.00000000E+00  0.00000000E+00
  0.00000000E+00  4.02486927E-02  2.37593957E-01  8.15853851E-01  1.00000000E+00
  1.00000000E+00  1.00000000E+00  0.00000000E+00  0.00000000E+00  0.00000000E+00
  0.00000000E+00  0.00000000E+00  0.00000000E+00  0.00000000E+00  0.00000000E+00
  0.00000000E+00  0.00000000E+00  0.00000000E+00  0.00000000E+00  0.00000000E+00
  0.00000000E+00  0.00000000E+00  0.00000000E+00  0.00000000E+00  0.00000000E+00
  0.00000000E+00  0.00000000E+00  0.00000000E+00  0.00000000E+00  0.00000000E+00
  0.00000000E+00  0.00000000E+00  0.00000000E+00  0.00000000E+00  0.00000000E+00
  0.00000000E+00  0.00000000E+00  0.00000000E+00  0.00000000E+00  0.00000000E+00
  0.00000000E+00  0.00000000E+00  0.00000000E+00  0.00000000E+00  0.00000000E+00
  0.00000000E+00  0.00000000E+00  0.00000000E+00  0.00000000E+00  0.00000000E+00
Coordinates of each shell                  R   N=         198
  0.00000000E+00  2.64852865E+00  2.97884729E-02  0.00000000E+00  2.64852865E+00
  2.97884729E-02  0.00000000E+00  2.64852865E+00  2.97884729E-02  0.00000000E+00
  2.64852865E+00  2.97884729E-02  0.00000000E+00  2.64852865E+00  2.97884729E-02
  0.00000000E+00  2.64852865E+00  2.97884729E-02  0.00000000E+00  1.35001279E+00
  2.27873832E+00  0.00000000E+00  1.35001279E+00  2.27873832E+00  0.00000000E+00
  1.35001279E+00  2.27873832E+00  0.00000000E+00  1.35001279E+00  2.27873832E+00
  0.00000000E+00  1.35001279E+00  2.27873832E+00  0.00000000E+00  1.35001279E+00
  2.27873832E+00 -1.65328884E-16 -1.35001279E+00  2.27873832E+00 -1.65328884E-16
 -1.35001279E+00  2.27873832E+00 -1.65328884E-16 -1.35001279E+00  2.27873832E+00
 -1.65328884E-16 -1.35001279E+00  2.27873832E+00 -1.65328884E-16 -1.35001279E+00
  2.27873832E+00 -1.65328884E-16 -1.35001279E+00  2.27873832E+00 -3.24351214E-16
 -2.64852865E+00  2.97884729E-02 -3.24351214E-16 -2.64852865E+00  2.97884729E-02
 -3.24351214E-16 -2.64852865E+00  2.97884729E-02 -3.24351214E-16 -2.64852865E+00
  2.97884729E-02 -3.24351214E-16 -2.64852865E+00  2.97884729E-02 -3.24351214E-16
 -2.64852865E+00  2.97884729E-02  0.00000000E+00 -1.29845539E+00 -2.30852085E+00
  0.00000000E+00 -1.29845539E+00 -2.30852085E+00  0.00000000E+00 -1.29845539E+00
 -2.30852085E+00  0.00000000E+00 -1.29845539E+00 -2.30852085E+00  0.00000000E+00
 -1.29845539E+00 -2.30852085E+00  0.00000000E+00 -1.29845539E+00 -2.30852085E+00
  1.59014924E-16  1.29845539E+00 -2.30852085E+00  1.59014924E-16  1.29845539E+00
 -2.30852085E+00  1.59014924E-16  1.29845539E+00 -2.30852085E+00  1.59014924E-16
  1.29845539E+00 -2.30852085E+00  1.59014924E-16  1.29845539E+00 -2.30852085E+00
  1.59014924E-16  1.29845539E+00 -2.30852085E+00  0.00000000E+00  4.62746120E+00
 -5.00497026E-01  0.00000000E+00  4.62746120E+00 -5.00497026E-01  0.00000000E+00
  4.62746120E+00 -5.00497026E-01  0.00000000E+00  4.62746120E+00 -5.00497026E-01
  0.00000000E+00  4.62746120E+00 -5.00497026E-01  0.00000000E+00  1.88027372E+00
  4.25768976E+00  0.00000000E+00  1.88027372E+00  4.25768976E+00  0.00000000E+00
  1.88027372E+00  4.25768976E+00  0.00000000E+00  1.88027372E+00  4.25768976E+00
  0.00000000E+00  1.88027372E+00  4.25768976E+00 -2.30267120E-16 -1.88027372E+00
  4.25768976E+00 -2.30267120E-16 -1.88027372E+00  4.25768976E+00 -2.30267120E-16
 -1.88027372E+00  4.25768976E+00 -2.30267120E-16 -1.88027372E+00  4.25768976E+00
 -2.30267120E-16 -1.88027372E+00  4.25768976E+00 -5.66700555E-16 -4.62746120E+00
 -5.00497026E-01 -5.66700555E-16 -4.62746120E+00 -5.00497026E-01 -5.66700555E-16
 -4.62746120E+00 -5.00497026E-01 -5.66700555E-16 -4.62746120E+00 -5.00497026E-01
 -5.66700555E-16 -4.62746120E+00 -5.00497026E-01  0.00000000E+00 -2.74711378E+00
 -3.75722837E+00  0.00000000E+00 -2.74711378E+00 -3.75722837E+00  0.00000000E+00
 -2.74711378E+00 -3.75722837E+00  0.00000000E+00 -2.74711378E+00 -3.75722837E+00
  0.00000000E+00 -2.74711378E+00 -3.75722837E+00  3.36424409E-16  2.74711378E+00
 -3.75722837E+00  3.36424409E-16  2.74711378E+00 -3.75722837E+00  3.36424409E-16
  2.74711378E+00 -3.75722837E+00  3.36424409E-16  2.74711378E+00 -3.75722837E+00
  3.36424409E-16  2.74711378E+00 -3.75722837E+00
Constraint Structure                       R   N=          36
  0.00000000E+00  2.64852865E+00  2.97884729E-02  0.00000000E+00  1.35001279E+00
  2.27873832E+00 -1.65328884E-16 -1.35001279E+00  2.27873832E+00 -3.24351214E-16
 -2.64852865E+00  2.97884729E-02  0.00000000E+00 -1.29845539E+00 -2.30852085E+00
  1.59014924E-16  1.29845539E+00 -2.30852085E+00  0.00000000E+00  4.62746120E+00
 -5.00497026E-01  0.00000000E+00  1.88027372E+00  4.25768976E+00 -2.30267120E-16
 -1.88027372E+00  4.25768976E+00 -5.66700555E-16 -4.62746120E+00 -5.00497026E-01
  0.00000000E+00 -2.74711378E+00 -3.75722837E+00  3.36424409E-16  2.74711378E+00
 -3.75722837E+00
Num ILSW                                   I              100
ILSW                                       I   N=         100
           0           0           0           0           2           0
           0           0           0           0           0          -1
           0           0           0           0           0           0
           0           0           0           0           0           0
           1           0           0           0           0           0
           0           0      100000           0          -1           0
           0           0           0           0           0           0
           0           0           0           1           0           0
           0           0           1           0           0           0
           0           0           4          40           0           0
           0           0           0           0           0           0
           0           0           0           0           0           0
           0           0           0           0           0           0
           0           0           0           0           0           0
           0           0           0           0           0           0
           0           0           0           0           0           0
           0           0           0           0
Num RLSW                                   I               40
RLSW                                       R   N=          40
  1.00000000E+00  1.00000000E+00  1.00000000E+00  1.00000000E+00  1.00000000E+00
  0.00000000E+00  0.00000000E+00  1.00000000E+00  0.00000000E+00  0.00000000E+00
  0.00000000E+00  0.00000000E+00  1.00000000E+00  0.00000000E+00  0.00000000E+00
  0.00000000E+00  0.00000000E+00  1.00000000E+00  0.00000000E+00  0.00000000E+00
  0.00000000E+00  0.00000000E+00  1.00000000E+00  0.00000000E+00  0.00000000E+00
  0.00000000E+00  0.00000000E+00  1.00000000E+00  0.00000000E+00  0.00000000E+00
  0.00000000E+00  0.00000000E+00  0.00000000E+00  0.00000000E+00  0.00000000E+00
  0.00000000E+00  0.00000000E+00  0.00000000E+00  1.00000000E+00  1.00000000E+00
MxBond                                     I                3
NBond                                      I   N=          12
           3           3           3           3           3           3
           1           1           1           1           1           1
IBond                                      I   N=          36
           2           6           7           1           3           8
           2           4           9           3           5          10
           4           6          11           1           5          12
           1           0           0           2           0           0
           3           0           0           4           0           0
           5           0           0           6           0           0
RBond                                      R   N=          36
  1.50000000E+00  1.50000000E+00  1.00000000E+00  1.50000000E+00  1.50000000E+00
  1.00000000E+00  1.50000000E+00  1.50000000E+00  1.00000000E+00  1.50000000E+00
  1.50000000E+00  1.00000000E+00  1.50000000E+00  1.50000000E+00  1.00000000E+00
  1.50000000E+00  1.50000000E+00  1.00000000E+00  1.00000000E+00  0.00000000E+00
  0.00000000E+00  1.00000000E+00  0.00000000E+00  0.00000000E+00  1.00000000E+00
  0.00000000E+00  0.00000000E+00  1.00000000E+00  0.00000000E+00  0.00000000E+00
  1.00000000E+00  0.00000000E+00  0.00000000E+00  1.00000000E+00  0.00000000E+00
  0.00000000E+00
Virial Ratio                               R      2.001264589084273E+00
SCF Energy                                 R     -2.307034361891167E+02
MP2 Energy                                 R     -2.315380350166333E+02
Total Energy                               R     -2.315380350166333E+02
Post-SCF wavefunction norm                 R      1.145526344961179E+00
RMS Density                                R      5.664867856916740E-09
External E-field                           R   N=          35
  0.00000000E+00  0.00000000E+00  0.00000000E+00  0.00000000E+00  0.00000000E+00
  0.00000000E+00  0.00000000E+00  0.00000000E+00  0.00000000E+00  0.00000000E+00
  0.00000000E+00  0.00000000E+00  0.00000000E+00  0.00000000E+00  0.00000000E+00
  0.00000000E+00  0.00000000E+00  0.00000000E+00  0.00000000E+00  0.00000000E+00
  0.00000000E+00  0.00000000E+00  0.00000000E+00  0.00000000E+00  0.00000000E+00
  0.00000000E+00  0.00000000E+00  0.00000000E+00  0.00000000E+00  0.00000000E+00
  0.00000000E+00  0.00000000E+00  0.00000000E+00  0.00000000E+00  0.00000000E+00
IOpCl                                      I                0
IROHF                                      I                0
Alpha Orbital Energies                     R   N=         174
 -1.12429825E+01 -1.12424406E+01 -1.12424392E+01 -1.12412129E+01 -1.12412115E+01
 -1.12406385E+01 -1.15153217E+00 -1.01970681E+00 -1.01970525E+00 -8.30565799E-01
 -8.30561729E-01 -7.26330777E-01 -6.37880470E-01 -6.10921127E-01 -5.89749909E-01
 -5.89745423E-01 -5.01095519E-01 -4.82902671E-01 -4.82889627E-01 -3.38620000E-01
 -3.38619721E-01  4.19122104E-02  4.88830473E-02  4.88834004E-02  6.66824899E-02
  6.66827467E-02  8.86406478E-02  1.06572716E-01  1.06577021E-01  1.29053606E-01
  1.52690259E-01  1.52690451E-01  1.55333686E-01  1.61504990E-01  1.74435182E-01
  1.74436522E-01  1.87170611E-01  1.87170815E-01  1.91322438E-01  2.09280109E-01
  2.13893223E-01  2.13893811E-01  2.15035786E-01  2.15038265E-01  2.19184572E-01
  2.26895725E-01  2.26896598E-01  2.50284505E-01  2.50285020E-01  2.87572003E-01
  2.87572935E-01  3.00748134E-01  3.30281439E-01  3.34943202E-01  3.64667009E-01
  3.77449981E-01  3.77451915E-01  4.39655235E-01  4.39658329E-01  4.43002329E-01
  4.86914454E-01  4.86920388E-01  5.19652356E-01  5.19655496E-01  5.90265185E-01
  6.49215741E-01  6.87235817E-01  7.14108546E-01  7.26693279E-01  7.26695723E-01
  7.54618377E-01  7.54621539E-01  7.57329140E-01  7.57331249E-01  7.63968368E-01
  7.95118949E-01  8.17762707E-01  8.17764612E-01  8.84428297E-01  9.12284473E-01
  9.12287787E-01  9.54061865E-01  9.54062943E-01  9.68149840E-01  1.00829026E+00
  1.01953034E+00  1.01953287E+00  1.05992621E+00  1.05992741E+00  1.08130402E+00
  1.13108950E+00  1.13109170E+00  1.14298590E+00  1.16138971E+00  1.21191380E+00
  1.21191782E+00  1.24380315E+00  1.31550939E+00  1.31551628E+00  1.40101010E+00
  1.40101451E+00  1.53367658E+00  1.57242906E+00  1.59637914E+00  1.71775205E+00
  1.71776687E+00  1.75804351E+00  1.80546087E+00  1.80950122E+00  1.80950577E+00
  1.88394990E+00  1.88396041E+00  1.97647569E+00  1.97649554E+00  1.99359687E+00
  2.05261105E+00  2.05261401E+00  2.13623054E+00  2.17409538E+00  2.17410656E+00
  2.18695840E+00  2.19164296E+00  2.19166062E+00  2.20435465E+00  2.20435965E+00
  2.30956935E+00  2.38585439E+00  2.38586719E+00  2.43847383E+00  2.43847765E+00
  2.50921295E+00  2.60641929E+00  2.60642830E+00  2.72346198E+00  2.78708118E+00
  2.80089546E+00  2.80092522E+00  2.82099724E+00  2.87516885E+00  2.94186133E+00
  2.94186493E+00  3.01989712E+00  3.01990093E+00  3.05422001E+00  3.14076263E+00
  3.14077461E+00  3.16926595E+00  3.18940476E+00  3.18940747E+00  3.29597012E+00
  3.29597097E+00  3.34438202E+00  3.34438468E+00  3.40363522E+00  3.47132418E+00
  3.52067519E+00  3.72115577E+00  3.72118324E+00  3.85430292E+00  3.93114969E+00
  3.93115022E+00  4.02539753E+00  4.38144323E+00  4.38144564E+00  4.52662700E+00
  4.55554025E+00  4.55554521E+00  5.24875532E+00  2.47087337E+01  2.50844368E+01
  2.50844724E+01  2.53418675E+01  2.53418722E+01  2.54131929E+01
Alpha MO coefficients                      R   N=       30276
  2.30108530E-01  1.90523400E-01  0.00000000E+00 -3.42549494E-05  2.74566902E-05
  2.00202305E-03  0.00000000E+00 -1.53066219E-04 -1.48726215E-05 -3.42667110E-04
  0.00000000E+00  2.09117787E-05  1.37507820E-05 -1.54728804E-04  0.00000000E+00
 -2.12583250E-04  9.93172068E-05  1.14337686E-04  0.00000000E+00 -4.12946821E-05
 -8.24695615E-05  0.00000000E+00  2.29783495E-01  1.90254191E-01  0.00000000E+00
  6.69042855E-06 -4.35580820E-05  1.99966983E-03  0.00000000E+00 -8.93381469E-05
 -1.25008737E-04 -3.42247463E-04  0.00000000E+00  2.23956906E-05  1.09221210E-05
 -1.58033866E-04  0.00000000E+00 -2.02238300E-05 -2.32422706E-04  6.99637957E-05
  0.00000000E+00 -7.06071986E-05 -1.07735041E-04  0.00000000E+00  2.29783495E-01
  1.90254191E-01  0.00000000E+00 -6.69042855E-06 -4.35580820E-05  1.99966983E-03
  0.00000000E+00  8.93381469E-05 -1.25008737E-04 -3.42247463E-04  0.00000000E+00
 -2.23956906E-05  1.09221210E-05 -1.58033866E-04  0.00000000E+00  2.02238300E-05
 -2.32422706E-04  6.99637957E-05  0.00000000E+00  7.06071986E-05 -1.07735041E-04
  0.00000000E+00  2.30108530E-01  1.90523400E-01  0.00000000E+00  3.42549494E-05
  2.74566902E-05  2.00202305E-03  0.00000000E+00  1.53066219E-04 -1.48726215E-05
 -3.42667110E-04  0.00000000E+00 -2.09117787E-05  1.37507820E-05 -1.54728804E-04
  0.00000000E+00  2.12583250E-04  9.93172068E-05  1.14337686E-04  0.00000000E+00
  4.12946821E-05 -8.24695615E-05  0.00000000E+00  2.29854506E-01  1.90312979E-01
  0.00000000E+00  4.09051512E-05  1.60554225E-05  2.00028750E-03  0.00000000E+00
  6.35726162E-05  1.40062737E-04 -3.42540374E-04  0.00000000E+00  1.73006909E-06
 -2.48910381E-05 -1.56752592E-04  0.00000000E+00  1.91390639E-04  1.33822719E-04
  8.32757077E-06  0.00000000E+00 -2.94918498E-05 -1.43392786E-04  0.00000000E+00
  2.29854506E-01  1.90312979E-01  0.00000000E+00 -4.09051512E-05  1.60554225E-05
  2.00028750E-03  0.00000000E+00 -6.35726162E-05  1.40062737E-04 -3.42540374E-04
  0.00000000E+00 -1.73006909E-06 -2.48910381E-05 -1.56752592E-04  0.00000000E+00
 -1.91390639E-04  1.33822719E-04  8.32757077E-06  0.00000000E+00  2.94918498E-05
 -1.43392786E-04  0.00000000E+00  1.73538960E-04 -8.09556395E-05  2.78194779E-04
  1.24535852E-04  0.00000000E+00  5.41475730E-06  3.83087000E-05  1.73314836E-04
 -8.07337197E-05  2.77969899E-04  1.24041946E-04  0.00000000E+00  3.58077160E-05
 -1.44945388E-05  1.73314836E-04 -8.07337197E-05  2.77969899E-04  1.24041946E-04
  0.00000000E+00 -3.58077160E-05 -1.44945388E-05  1.73538960E-04 -8.09556395E-05
  2.78194779E-04  1.24535852E-04  0.00000000E+00 -5.41475730E-06  3.83087000E-05
  1.73379569E-04 -8.07373250E-05  2.78015220E-04  1.24090861E-04  0.00000000E+00
  3.04771201E-05 -2.37618424E-05  1.73379569E-04 -8.07373250E-05  2.78015220E-04
  1.24090861E-04  0.00000000E+00 -3.04771201E-05 -2.37618424E-05  3.23537101E-01
  2.67918303E-01  0.00000000E+00 -1.31776409E-05  5.33412425E-05  2.62336303E-03
  0.00000000E+00 -8.50487810E-05 -2.46457765E-05 -2.53875761E-04  0.00000000E+00
  2.35009920E-06 -1.08811121E-05 -1.08698349E-03  0.00000000E+00 -1.09817632E-03
  5.25935730E-04  1.72665024E-04  0.00000000E+00 -1.09250871E-04 -1.43552582E-04
  0.00000000E+00  1.91100552E-01  1.58254702E-01  0.00000000E+00  1.54594089E-04
 -1.03842422E-04  1.50863478E-03  0.00000000E+00  1.14584836E-04  1.00538874E-06
 -6.62504482E-05  0.00000000E+00 -1.42988317E-04  1.29549635E-04 -2.33790828E-03
  0.00000000E+00  6.88071148E-04 -8.66604184E-04  1.59398155E-04  0.00000000E+00
 -1.50222602E-04 -6.34901388E-05  0.00000000E+00 -1.91100552E-01 -1.58254702E-01
  0.00000000E+00  1.54594089E-04  1.03842422E-04 -1.50863478E-03  0.00000000E+00
  1.14584836E-04 -1.00538874E-06  6.62504482E-05  0.00000000E+00 -1.42988317E-04
 -1.29549635E-04  2.33790828E-03  0.00000000E+00  6.88071148E-04  8.66604184E-04
 -1.59398155E-04  0.00000000E+00 -1.50222602E-04  6.34901388E-05  0.00000000E+00
 -3.23537101E-01 -2.67918303E-01  0.00000000E+00 -1.31776409E-05 -5.33412425E-05
 -2.62336303E-03  0.00000000E+00 -8.50487810E-05  2.46457765E-05  2.53875761E-04
  0.00000000E+00  2.35009920E-06  1.08811121E-05  1.08698349E-03  0.00000000E+00
 -1.09817632E-03 -5.25935730E-04 -1.72665024E-04  0.00000000E+00 -1.09250871E-04
  1.43552582E-04  0.00000000E+00 -1.32018078E-01 -1.09316950E-01  0.00000000E+00
  1.14277115E-04 -6.68937438E-05 -1.11187376E-03  0.00000000E+00  3.56439855E-05
 -1.85873132E-04  1.84920925E-04  0.00000000E+00 -1.75698207E-04  5.48123250E-05
 -1.26754454E-03  0.00000000E+00  8.78129765E-05 -8.53837406E-04 -8.11578452E-05
  0.00000000E+00  3.00084838E-05  4.03626805E-05  0.00000000E+00  1.32018078E-01
  1.09316950E-01  0.00000000E+00  1.14277115E-04  6.68937438E-05  1.11187376E-03
  0.00000000E+00  3.56439855E-05  1.85873132E-04 -1.84920925E-04  0.00000000E+00