X=NH2                                                                   
SP        RMP2-FC                                                     6-311++G(d,p)       
Number of atoms                            I               14
Info1-9                                    I   N=           9
          25          23           0           0           0         110
           1           2           1
Charge                                     I                0
Multiplicity                               I                1
Number of electrons                        I               50
Number of alpha electrons                  I               25
Number of beta electrons                   I               25
Number of basis functions                  I              203
Number of independent functions            I              202
Number of point charges in /Mol/           I                0
Number of translation vectors              I                0
Atomic numbers                             I   N=          14
           6           6           6           6           6           6
           7           1           1           1           1           1
           1           1
Nuclear charges                            R   N=          14
  6.00000000E+00  6.00000000E+00  6.00000000E+00  6.00000000E+00  6.00000000E+00
  6.00000000E+00  7.00000000E+00  1.00000000E+00  1.00000000E+00  1.00000000E+00
  1.00000000E+00  1.00000000E+00  1.00000000E+00  1.00000000E+00
Current cartesian coordinates              R   N=          42
  2.21219467E+00  2.26925117E+00  6.26066268E-03 -4.16828231E-01  2.27971836E+00
 -9.10847996E-03 -1.77047308E+00  2.64561659E-04 -1.42277481E-02 -4.16877364E-01
 -2.27940278E+00 -8.99698612E-03  2.21212286E+00 -2.26947038E+00  6.30790583E-03
  3.55193491E+00 -1.43619186E-04  1.44620741E-02 -4.40956444E+00 -3.77945227E-06
 -1.36748142E-01 -1.43623532E+00 -4.05967031E+00 -2.61141254E-02  3.21949429E+00
 -4.05451135E+00  1.29257267E-02  5.59909224E+00  7.36993192E-05  2.75087433E-02
  3.21996672E+00  4.05406916E+00  1.25799069E-02 -1.43581203E+00  4.06018809E+00
 -2.59364912E-02 -5.26553290E+00 -1.58371711E+00  4.92904826E-01 -5.26649099E+00
  1.58230171E+00  4.95189505E-01
Force Field                                I                0
Int Atom Types                             I   N=          14
           0           0           0           0           0           0
           0           0           0           0           0           0
           0           0
MM charges                                 R   N=          14
  0.00000000E+00  0.00000000E+00  0.00000000E+00  0.00000000E+00  0.00000000E+00
  0.00000000E+00  0.00000000E+00  0.00000000E+00  0.00000000E+00  0.00000000E+00
  0.00000000E+00  0.00000000E+00  0.00000000E+00  0.00000000E+00
Integer atomic weights                     I   N=          14
          12          12          12          12          12          12
          14           1           1           1           1           1
           1           1
Real atomic weights                        R   N=          14
  1.20000000E+01  1.20000000E+01  1.20000000E+01  1.20000000E+01  1.20000000E+01
  1.20000000E+01  1.40030740E+01  1.00782504E+00  1.00782504E+00  1.00782504E+00
  1.00782504E+00  1.00782504E+00  1.00782504E+00  1.00782504E+00
Atom fragment info                         I   N=          14
           0           0           0           0           0           0
           0           0           0           0           0           0
           0           0
Atom residue num                           I   N=          14
           0           0           0           0           0           0
           0           0           0           0           0           0
           0           0
Nuclear spins                              I   N=          14
           0           0           0           0           0           0
           2           1           1           1           1           1
           1           1
Nuclear ZEff                               R   N=          14
 -3.60000000E+00 -3.60000000E+00 -3.60000000E+00 -3.60000000E+00 -3.60000000E+00
 -3.60000000E+00 -4.55000000E+00 -1.00000000E+00 -1.00000000E+00 -1.00000000E+00
 -1.00000000E+00 -1.00000000E+00 -1.00000000E+00 -1.00000000E+00
Nuclear QMom                               R   N=          14
  0.00000000E+00  0.00000000E+00  0.00000000E+00  0.00000000E+00  0.00000000E+00
  0.00000000E+00  2.04400000E+00  0.00000000E+00  0.00000000E+00  0.00000000E+00
  0.00000000E+00  0.00000000E+00  0.00000000E+00  0.00000000E+00
Nuclear GFac                               R   N=          14
  0.00000000E+00  0.00000000E+00  0.00000000E+00  0.00000000E+00  0.00000000E+00
  0.00000000E+00  4.03761000E-01  2.79284600E+00  2.79284600E+00  2.79284600E+00
  2.79284600E+00  2.79284600E+00  2.79284600E+00  2.79284600E+00
MicOpt                                     I   N=          14
          -1          -1          -1          -1          -1          -1
          -1          -1          -1          -1          -1          -1
          -1          -1
Number of contracted shells                I               77
Number of primitive shells                 I              140
Pure/Cartesian d shells                    I                0
Pure/Cartesian f shells                    I                0
Highest angular momentum                   I                2
Largest degree of contraction              I                6
Shell types                                I   N=          77
           0          -1          -1          -1          -1          -2
           0          -1          -1          -1          -1          -2
           0          -1          -1          -1          -1          -2
           0          -1          -1          -1          -1          -2
           0          -1          -1          -1          -1          -2
           0          -1          -1          -1          -1          -2
           0          -1          -1          -1          -1          -2
           0           0           0           0           1           0
           0           0           0           1           0           0
           0           0           1           0           0           0
           0           1           0           0           0           0
           1           0           0           0           0           1
           0           0           0           0           1
Number of primitives per shell             I   N=          77
           6           3           1           1           1           1
           6           3           1           1           1           1
           6           3           1           1           1           1
           6           3           1           1           1           1
           6           3           1           1           1           1
           6           3           1           1           1           1
           6           3           1           1           1           1
           3           1           1           1           1           3
           1           1           1           1           3           1
           1           1           1           3           1           1
           1           1           3           1           1           1
           1           3           1           1           1           1
           3           1           1           1           1
Shell to atom map                          I   N=          77
           1           1           1           1           1           1
           2           2           2           2           2           2
           3           3           3           3           3           3
           4           4           4           4           4           4
           5           5           5           5           5           5
           6           6           6           6           6           6
           7           7           7           7           7           7
           8           8           8           8           8           9
           9           9           9           9          10          10
          10          10          10          11          11          11
          11          11          12          12          12          12
          12          13          13          13          13          13
          14          14          14          14          14
Primitive exponents                        R   N=         140
  4.56324000E+03  6.82024000E+02  1.54973000E+02  4.44553000E+01  1.30290000E+01
  1.82773000E+00  2.09642000E+01  4.80331000E+00  1.45933000E+00  4.83456000E-01
  1.45585000E-01  4.38000000E-02  6.26000000E-01  4.56324000E+03  6.82024000E+02
  1.54973000E+02  4.44553000E+01  1.30290000E+01  1.82773000E+00  2.09642000E+01
  4.80331000E+00  1.45933000E+00  4.83456000E-01  1.45585000E-01  4.38000000E-02
  6.26000000E-01  4.56324000E+03  6.82024000E+02  1.54973000E+02  4.44553000E+01
  1.30290000E+01  1.82773000E+00  2.09642000E+01  4.80331000E+00  1.45933000E+00
  4.83456000E-01  1.45585000E-01  4.38000000E-02  6.26000000E-01  4.56324000E+03
  6.82024000E+02  1.54973000E+02  4.44553000E+01  1.30290000E+01  1.82773000E+00
  2.09642000E+01  4.80331000E+00  1.45933000E+00  4.83456000E-01  1.45585000E-01
  4.38000000E-02  6.26000000E-01  4.56324000E+03  6.82024000E+02  1.54973000E+02
  4.44553000E+01  1.30290000E+01  1.82773000E+00  2.09642000E+01  4.80331000E+00
  1.45933000E+00  4.83456000E-01  1.45585000E-01  4.38000000E-02  6.26000000E-01
  4.56324000E+03  6.82024000E+02  1.54973000E+02  4.44553000E+01  1.30290000E+01
  1.82773000E+00  2.09642000E+01  4.80331000E+00  1.45933000E+00  4.83456000E-01
  1.45585000E-01  4.38000000E-02  6.26000000E-01  6.29348000E+03  9.49044000E+02
  2.18776000E+02  6.36916000E+01  1.88282000E+01  2.72023000E+00  3.06331000E+01
  7.02614000E+00  2.11205000E+00  6.84009000E-01  2.00878000E-01  6.39000000E-02
  9.13000000E-01  3.38650000E+01  5.09479000E+00  1.15879000E+00  3.25840000E-01
  1.02741000E-01  3.60000000E-02  7.50000000E-01  3.38650000E+01  5.09479000E+00
  1.15879000E+00  3.25840000E-01  1.02741000E-01  3.60000000E-02  7.50000000E-01
  3.38650000E+01  5.09479000E+00  1.15879000E+00  3.25840000E-01  1.02741000E-01
  3.60000000E-02  7.50000000E-01  3.38650000E+01  5.09479000E+00  1.15879000E+00
  3.25840000E-01  1.02741000E-01  3.60000000E-02  7.50000000E-01  3.38650000E+01
  5.09479000E+00  1.15879000E+00  3.25840000E-01  1.02741000E-01  3.60000000E-02
  7.50000000E-01  3.38650000E+01  5.09479000E+00  1.15879000E+00  3.25840000E-01
  1.02741000E-01  3.60000000E-02  7.50000000E-01  3.38650000E+01  5.09479000E+00
  1.15879000E+00  3.25840000E-01  1.02741000E-01  3.60000000E-02  7.50000000E-01
Contraction coefficients                   R   N=         140
  1.96665025E-03  1.52306019E-02  7.61269097E-02  2.60801033E-01  6.16462078E-01
  2.21006028E-01  1.14660081E-01  9.19999648E-01 -3.03068213E-03  1.00000000E+00
  1.00000000E+00  1.00000000E+00  1.00000000E+00  1.96665025E-03  1.52306019E-02
  7.61269097E-02  2.60801033E-01  6.16462078E-01  2.21006028E-01  1.14660081E-01
  9.19999648E-01 -3.03068213E-03  1.00000000E+00  1.00000000E+00  1.00000000E+00
  1.00000000E+00  1.96665025E-03  1.52306019E-02  7.61269097E-02  2.60801033E-01
  6.16462078E-01  2.21006028E-01  1.14660081E-01  9.19999648E-01 -3.03068213E-03
  1.00000000E+00  1.00000000E+00  1.00000000E+00  1.00000000E+00  1.96665025E-03
  1.52306019E-02  7.61269097E-02  2.60801033E-01  6.16462078E-01  2.21006028E-01
  1.14660081E-01  9.19999648E-01 -3.03068213E-03  1.00000000E+00  1.00000000E+00
  1.00000000E+00  1.00000000E+00  1.96665025E-03  1.52306019E-02  7.61269097E-02
  2.60801033E-01  6.16462078E-01  2.21006028E-01  1.14660081E-01  9.19999648E-01
 -3.03068213E-03  1.00000000E+00  1.00000000E+00  1.00000000E+00  1.00000000E+00
  1.96665025E-03  1.52306019E-02  7.61269097E-02  2.60801033E-01  6.16462078E-01
  2.21006028E-01  1.14660081E-01  9.19999648E-01 -3.03068213E-03  1.00000000E+00
  1.00000000E+00  1.00000000E+00  1.00000000E+00  1.96978815E-03  1.49612859E-02
  7.35005308E-02  2.48936766E-01  6.02459433E-01  2.56201759E-01  1.11906080E-01
  9.21666655E-01 -2.56919183E-03  1.00000000E+00  1.00000000E+00  1.00000000E+00
  1.00000000E+00  2.54938145E-02  1.90373109E-01  8.52161486E-01  1.00000000E+00
  1.00000000E+00  1.00000000E+00  1.00000000E+00  2.54938145E-02  1.90373109E-01
  8.52161486E-01  1.00000000E+00  1.00000000E+00  1.00000000E+00  1.00000000E+00
  2.54938145E-02  1.90373109E-01  8.52161486E-01  1.00000000E+00  1.00000000E+00
  1.00000000E+00  1.00000000E+00  2.54938145E-02  1.90373109E-01  8.52161486E-01
  1.00000000E+00  1.00000000E+00  1.00000000E+00  1.00000000E+00  2.54938145E-02
  1.90373109E-01  8.52161486E-01  1.00000000E+00  1.00000000E+00  1.00000000E+00
  1.00000000E+00  2.54938145E-02  1.90373109E-01  8.52161486E-01  1.00000000E+00
  1.00000000E+00  1.00000000E+00  1.00000000E+00  2.54938145E-02  1.90373109E-01
  8.52161486E-01  1.00000000E+00  1.00000000E+00  1.00000000E+00  1.00000000E+00
P(S=P) Contraction coefficients            R   N=         140
  0.00000000E+00  0.00000000E+00  0.00000000E+00  0.00000000E+00  0.00000000E+00
  0.00000000E+00  4.02486927E-02  2.37593957E-01  8.15853851E-01  1.00000000E+00
  1.00000000E+00  1.00000000E+00  0.00000000E+00  0.00000000E+00  0.00000000E+00
  0.00000000E+00  0.00000000E+00  0.00000000E+00  0.00000000E+00  4.02486927E-02
  2.37593957E-01  8.15853851E-01  1.00000000E+00  1.00000000E+00  1.00000000E+00
  0.00000000E+00  0.00000000E+00  0.00000000E+00  0.00000000E+00  0.00000000E+00
  0.00000000E+00  0.00000000E+00  4.02486927E-02  2.37593957E-01  8.15853851E-01
  1.00000000E+00  1.00000000E+00  1.00000000E+00  0.00000000E+00  0.00000000E+00
  0.00000000E+00  0.00000000E+00  0.00000000E+00  0.00000000E+00  0.00000000E+00
  4.02486927E-02  2.37593957E-01  8.15853851E-01  1.00000000E+00  1.00000000E+00
  1.00000000E+00  0.00000000E+00  0.00000000E+00  0.00000000E+00  0.00000000E+00
  0.00000000E+00  0.00000000E+00  0.00000000E+00  4.02486927E-02  2.37593957E-01
  8.15853851E-01  1.00000000E+00  1.00000000E+00  1.00000000E+00  0.00000000E+00
  0.00000000E+00  0.00000000E+00  0.00000000E+00  0.00000000E+00  0.00000000E+00
  0.00000000E+00  4.02486927E-02  2.37593957E-01  8.15853851E-01  1.00000000E+00
  1.00000000E+00  1.00000000E+00  0.00000000E+00  0.00000000E+00  0.00000000E+00
  0.00000000E+00  0.00000000E+00  0.00000000E+00  0.00000000E+00  3.83119186E-02
  2.37403116E-01  8.17592398E-01  1.00000000E+00  1.00000000E+00  1.00000000E+00
  0.00000000E+00  0.00000000E+00  0.00000000E+00  0.00000000E+00  0.00000000E+00
  0.00000000E+00  0.00000000E+00  0.00000000E+00  0.00000000E+00  0.00000000E+00
  0.00000000E+00  0.00000000E+00  0.00000000E+00  0.00000000E+00  0.00000000E+00
  0.00000000E+00  0.00000000E+00  0.00000000E+00  0.00000000E+00  0.00000000E+00
  0.00000000E+00  0.00000000E+00  0.00000000E+00  0.00000000E+00  0.00000000E+00
  0.00000000E+00  0.00000000E+00  0.00000000E+00  0.00000000E+00  0.00000000E+00
  0.00000000E+00  0.00000000E+00  0.00000000E+00  0.00000000E+00  0.00000000E+00
  0.00000000E+00  0.00000000E+00  0.00000000E+00  0.00000000E+00  0.00000000E+00
  0.00000000E+00  0.00000000E+00  0.00000000E+00  0.00000000E+00  0.00000000E+00
  0.00000000E+00  0.00000000E+00  0.00000000E+00  0.00000000E+00  0.00000000E+00
Coordinates of each shell                  R   N=         231
  2.21219534E+00  2.26925081E+00  6.26054929E-03  2.21219534E+00  2.26925081E+00
  6.26054929E-03  2.21219534E+00  2.26925081E+00  6.26054929E-03  2.21219534E+00
  2.26925081E+00  6.26054929E-03  2.21219534E+00  2.26925081E+00  6.26054929E-03
  2.21219534E+00  2.26925081E+00  6.26054929E-03 -4.16827564E-01  2.27971816E+00
 -9.10859334E-03 -4.16827564E-01  2.27971816E+00 -9.10859334E-03 -4.16827564E-01
  2.27971816E+00 -9.10859334E-03 -4.16827564E-01  2.27971816E+00 -9.10859334E-03
 -4.16827564E-01  2.27971816E+00 -9.10859334E-03 -4.16827564E-01  2.27971816E+00
 -9.10859334E-03 -1.77047255E+00  2.64442007E-04 -1.42278614E-02 -1.77047255E+00
  2.64442007E-04 -1.42278614E-02 -1.77047255E+00  2.64442007E-04 -1.42278614E-02
 -1.77047255E+00  2.64442007E-04 -1.42278614E-02 -1.77047255E+00  2.64442007E-04
 -1.42278614E-02 -1.77047255E+00  2.64442007E-04 -1.42278614E-02 -4.16876973E-01
 -2.27940298E+00 -8.99709950E-03 -4.16876973E-01 -2.27940298E+00 -8.99709950E-03
 -4.16876973E-01 -2.27940298E+00 -8.99709950E-03 -4.16876973E-01 -2.27940298E+00
 -8.99709950E-03 -4.16876973E-01 -2.27940298E+00 -8.99709950E-03 -4.16876973E-01
 -2.27940298E+00 -8.99709950E-03  2.21212325E+00 -2.26947074E+00  6.30779245E-03
  2.21212325E+00 -2.26947074E+00  6.30779245E-03  2.21212325E+00 -2.26947074E+00
  6.30779245E-03  2.21212325E+00 -2.26947074E+00  6.30779245E-03  2.21212325E+00
 -2.26947074E+00  6.30779245E-03  2.21212325E+00 -2.26947074E+00  6.30779245E-03
  3.55193544E+00 -1.44060849E-04  1.44619607E-02  3.55193544E+00 -1.44060849E-04
  1.44619607E-02  3.55193544E+00 -1.44060849E-04  1.44619607E-02  3.55193544E+00
 -1.44060849E-04  1.44619607E-02  3.55193544E+00 -1.44060849E-04  1.44619607E-02
  3.55193544E+00 -1.44060849E-04  1.44619607E-02 -4.40956391E+00 -3.73943642E-06
 -1.36748255E-01 -4.40956391E+00 -3.73943642E-06 -1.36748255E-01 -4.40956391E+00
 -3.73943642E-06 -1.36748255E-01 -4.40956391E+00 -3.73943642E-06 -1.36748255E-01
 -4.40956391E+00 -3.73943642E-06 -1.36748255E-01 -4.40956391E+00 -3.73943642E-06
 -1.36748255E-01 -1.43623504E+00 -4.05967045E+00 -2.61142388E-02 -1.43623504E+00
 -4.05967045E+00 -2.61142388E-02 -1.43623504E+00 -4.05967045E+00 -2.61142388E-02
 -1.43623504E+00 -4.05967045E+00 -2.61142388E-02 -1.43623504E+00 -4.05967045E+00
 -2.61142388E-02  3.21949457E+00 -4.05451177E+00  1.29256134E-02  3.21949457E+00
 -4.05451177E+00  1.29256134E-02  3.21949457E+00 -4.05451177E+00  1.29256134E-02
  3.21949457E+00 -4.05451177E+00  1.29256134E-02  3.21949457E+00 -4.05451177E+00
  1.29256134E-02  5.59909276E+00  7.31338014E-05  2.75086299E-02  5.59909276E+00
  7.31338014E-05  2.75086299E-02  5.59909276E+00  7.31338014E-05  2.75086299E-02
  5.59909276E+00  7.31338014E-05  2.75086299E-02  5.59909276E+00  7.31338014E-05
  2.75086299E-02  3.21996749E+00  4.05406874E+00  1.25797935E-02  3.21996749E+00
  4.05406874E+00  1.25797935E-02  3.21996749E+00  4.05406874E+00  1.25797935E-02
  3.21996749E+00  4.05406874E+00  1.25797935E-02  3.21996749E+00  4.05406874E+00
  1.25797935E-02 -1.43581125E+00  4.06018795E+00 -2.59366046E-02 -1.43581125E+00
  4.06018795E+00 -2.59366046E-02 -1.43581125E+00  4.06018795E+00 -2.59366046E-02
 -1.43581125E+00  4.06018795E+00 -2.59366046E-02 -1.43581125E+00  4.06018795E+00
 -2.59366046E-02 -5.26553246E+00 -1.58371702E+00  4.92904713E-01 -5.26553246E+00
 -1.58371702E+00  4.92904713E-01 -5.26553246E+00 -1.58371702E+00  4.92904713E-01
 -5.26553246E+00 -1.58371702E+00  4.92904713E-01 -5.26553246E+00 -1.58371702E+00
  4.92904713E-01 -5.26649036E+00  1.58230180E+00  4.95189392E-01 -5.26649036E+00
  1.58230180E+00  4.95189392E-01 -5.26649036E+00  1.58230180E+00  4.95189392E-01
 -5.26649036E+00  1.58230180E+00  4.95189392E-01 -5.26649036E+00  1.58230180E+00
  4.95189392E-01
Constraint Structure                       R   N=          42
  2.21219534E+00  2.26925081E+00  6.26054929E-03 -4.16827564E-01  2.27971816E+00
 -9.10859334E-03 -1.77047255E+00  2.64442007E-04 -1.42278614E-02 -4.16876973E-01
 -2.27940298E+00 -8.99709950E-03  2.21212325E+00 -2.26947074E+00  6.30779245E-03
  3.55193544E+00 -1.44060849E-04  1.44619607E-02 -4.40956391E+00 -3.73943642E-06
 -1.36748255E-01 -1.43623504E+00 -4.05967045E+00 -2.61142388E-02  3.21949457E+00
 -4.05451177E+00  1.29256134E-02  5.59909276E+00  7.31338014E-05  2.75086299E-02
  3.21996749E+00  4.05406874E+00  1.25797935E-02 -1.43581125E+00  4.06018795E+00
 -2.59366046E-02 -5.26553246E+00 -1.58371702E+00  4.92904713E-01 -5.26649036E+00
  1.58230180E+00  4.95189392E-01
Num ILSW                                   I              100
ILSW                                       I   N=         100
           0           0           0           0           2           0
           0           0           0           0           0          -1
           0           0           0           0           0           0
           0           0           0           0           0           0
           1           0           0           0           0           0
           0           0      100000           0          -1           0
           0           0           0           0           0           0
           0           0           0           1           0           0
           0           0           1           0           0           0
           0           0           4          40           0           0
           0           0           0           0           0           0
           0           0           0           0           0           0
           0           0           0           0           0           0
           0           0           0           0           0           0
           0           0           0           0           0           0
           0           0           0           0           0           0
           0           0           0           0
Num RLSW                                   I               40
RLSW                                       R   N=          40
  1.00000000E+00  1.00000000E+00  1.00000000E+00  1.00000000E+00  1.00000000E+00
  0.00000000E+00  0.00000000E+00  1.00000000E+00  0.00000000E+00  0.00000000E+00
  0.00000000E+00  0.00000000E+00  1.00000000E+00  0.00000000E+00  0.00000000E+00
  0.00000000E+00  0.00000000E+00  1.00000000E+00  0.00000000E+00  0.00000000E+00
  0.00000000E+00  0.00000000E+00  1.00000000E+00  0.00000000E+00  0.00000000E+00
  0.00000000E+00  0.00000000E+00  1.00000000E+00  0.00000000E+00  0.00000000E+00
  0.00000000E+00  0.00000000E+00  0.00000000E+00  0.00000000E+00  0.00000000E+00
  0.00000000E+00  0.00000000E+00  0.00000000E+00  1.00000000E+00  1.00000000E+00
MxBond                                     I                3
NBond                                      I   N=          14
           3           3           3           3           3           3
           3           1           1           1           1           1
           1           1
IBond                                      I   N=          42
           2           6          11           1           3          12
           2           4           7           3           5           8
           4           6           9           1           5          10
           3          13          14           4           0           0
           5           0           0           6           0           0
           1           0           0           2           0           0
           7           0           0           7           0           0
RBond                                      R   N=          42
  1.50000000E+00  1.50000000E+00  1.00000000E+00  1.50000000E+00  1.50000000E+00
  1.00000000E+00  1.50000000E+00  1.50000000E+00  1.00000000E+00  1.50000000E+00
  1.50000000E+00  1.00000000E+00  1.50000000E+00  1.50000000E+00  1.00000000E+00
  1.50000000E+00  1.50000000E+00  1.00000000E+00  1.00000000E+00  1.00000000E+00
  1.00000000E+00  1.00000000E+00  0.00000000E+00  0.00000000E+00  1.00000000E+00
  0.00000000E+00  0.00000000E+00  1.00000000E+00  0.00000000E+00  0.00000000E+00
  1.00000000E+00  0.00000000E+00  0.00000000E+00  1.00000000E+00  0.00000000E+00
  0.00000000E+00  1.00000000E+00  0.00000000E+00  0.00000000E+00  1.00000000E+00
  0.00000000E+00  0.00000000E+00
Virial Ratio                               R      2.001281363916469E+00
SCF Energy                                 R     -2.858043961976650E+02
MP2 Energy                                 R     -2.868156345632020E+02
Total Energy                               R     -2.868156345632020E+02
Post-SCF wavefunction norm                 R      1.166322342043303E+00
RMS Density                                R      6.867118744428741E-09
External E-field                           R   N=          35
  0.00000000E+00  0.00000000E+00  0.00000000E+00  0.00000000E+00  0.00000000E+00
  0.00000000E+00  0.00000000E+00  0.00000000E+00  0.00000000E+00  0.00000000E+00
  0.00000000E+00  0.00000000E+00  0.00000000E+00  0.00000000E+00  0.00000000E+00
  0.00000000E+00  0.00000000E+00  0.00000000E+00  0.00000000E+00  0.00000000E+00
  0.00000000E+00  0.00000000E+00  0.00000000E+00  0.00000000E+00  0.00000000E+00
  0.00000000E+00  0.00000000E+00  0.00000000E+00  0.00000000E+00  0.00000000E+00
  0.00000000E+00  0.00000000E+00  0.00000000E+00  0.00000000E+00  0.00000000E+00
IOpCl                                      I                0
IROHF                                      I                0
Alpha Orbital Energies                     R   N=         202
 -1.55661413E+01 -1.12820828E+01 -1.12375296E+01 -1.12374963E+01 -1.12261163E+01
 -1.12260980E+01 -1.12213880E+01 -1.22518287E+00 -1.12806423E+00 -1.01342791E+00
 -9.87460818E-01 -8.32698546E-01 -8.14658960E-01 -7.07254261E-01 -6.87789304E-01
 -6.57551865E-01 -6.00090678E-01 -5.95024779E-01 -5.82945145E-01 -5.33459106E-01
 -5.08850585E-01 -4.89831277E-01 -4.47388577E-01 -3.36868670E-01 -2.94315543E-01
  3.98957699E-02  4.85879051E-02  4.88357174E-02  6.53782448E-02  6.59667162E-02
  9.45749600E-02  1.02057298E-01  1.11692023E-01  1.20143274E-01  1.29387483E-01
  1.38756583E-01  1.54264090E-01  1.62586302E-01  1.78604162E-01  1.78965383E-01
  1.84033817E-01  1.84335605E-01  1.85251906E-01  2.01121354E-01  2.05127097E-01
  2.07780828E-01  2.13589211E-01  2.16656189E-01  2.20766025E-01  2.28344302E-01
  2.40909640E-01  2.43604606E-01  2.54293731E-01  2.60790012E-01  2.61611935E-01
  2.73381197E-01  2.83709844E-01  2.98065070E-01  3.06532745E-01  3.25120661E-01
  3.43787362E-01  3.52952524E-01  3.64112614E-01  3.78416167E-01  3.96712731E-01
  4.11143108E-01  4.12257902E-01  4.31979532E-01  4.37220663E-01  4.63581719E-01
  5.06715889E-01  5.13566486E-01  5.32078369E-01  5.72530960E-01  6.27471656E-01
  6.44610852E-01  7.17613183E-01  7.24214380E-01  7.30079663E-01  7.47271303E-01
  7.50773390E-01  7.61011117E-01  7.64938864E-01  7.65423881E-01  7.83921705E-01
  8.16202349E-01  8.18815679E-01  8.34357624E-01  8.57672339E-01  8.75413520E-01
  8.96312256E-01  9.31091766E-01  9.49202835E-01  9.57455967E-01  9.78383285E-01
  9.95857927E-01  1.01394425E+00  1.02408941E+00  1.03729451E+00  1.05692849E+00
  1.07299711E+00  1.09468312E+00  1.11199719E+00  1.11781575E+00  1.12681028E+00
  1.13241671E+00  1.16293312E+00  1.20248234E+00  1.22698426E+00  1.22864923E+00
  1.25747385E+00  1.32986032E+00  1.34310847E+00  1.39554872E+00  1.41462171E+00
  1.48799298E+00  1.52292719E+00  1.66132627E+00  1.70716482E+00  1.72911851E+00
  1.78035206E+00  1.80241848E+00  1.80390925E+00  1.83552477E+00  1.84089963E+00
  1.84653396E+00  1.86747825E+00  1.90400707E+00  1.92208047E+00  1.94318139E+00
  1.97140916E+00  1.98550821E+00  2.02044524E+00  2.05781991E+00  2.11957752E+00
  2.12020836E+00  2.17448248E+00  2.19429580E+00  2.23330628E+00  2.24059173E+00
  2.24892981E+00  2.25233630E+00  2.25421240E+00  2.25617589E+00  2.33316837E+00
  2.37625131E+00  2.39761632E+00  2.39770438E+00  2.43138359E+00  2.58829247E+00
  2.60189545E+00  2.67074744E+00  2.75020482E+00  2.78064906E+00  2.78582397E+00
  2.83290151E+00  2.90817221E+00  2.91291059E+00  2.93047252E+00  2.97118553E+00
  3.00682640E+00  3.01820122E+00  3.02228012E+00  3.03886754E+00  3.04861170E+00
  3.05098474E+00  3.07922708E+00  3.11065010E+00  3.14528181E+00  3.19859628E+00
  3.21803459E+00  3.23533542E+00  3.27443183E+00  3.30752301E+00  3.32778458E+00
  3.32847718E+00  3.39473651E+00  3.48760541E+00  3.58288996E+00  3.69567006E+00
  3.76414016E+00  3.78277208E+00  3.85730439E+00  3.91967527E+00  3.93094650E+00
  4.04313999E+00  4.27423086E+00  4.40814415E+00  4.46111608E+00  4.49451963E+00
  4.57023503E+00  4.58169600E+00  5.25606716E+00  5.29258304E+00  5.48951724E+00
  2.47577950E+01  2.51120023E+01  2.51306818E+01  2.52378697E+01  2.52703380E+01
  2.53623760E+01  3.70749820E+01
Alpha MO coefficients                      R   N=       41006
 -3.49732584E-07  1.12362000E-07 -5.60196358E-06 -1.80894405E-06  9.87426935E-07
  5.39255665E-06  2.92051279E-05  1.03743425E-05 -3.28460241E-06 -7.76056047E-04
  2.11651177E-04  9.47241960E-05 -4.68574359E-06  8.58308503E-04  2.50229553E-04
 -8.31065128E-04  1.35063914E-05 -5.78279973E-07  2.74575212E-06 -2.43456613E-07
 -4.44697907E-06  3.74608021E-06  3.20536200E-07  7.94036952E-07  7.20562643E-06
  1.40721976E-05 -9.76380622E-07 -2.63923642E-05 -1.79311870E-05 -7.44493862E-05
 -2.17757018E-07  8.43502822E-04  5.90514739E-04 -4.95640873E-04  2.95953590E-05
  1.46263329E-03  6.57723813E-04  1.55034184E-06 -7.84951061E-05 -1.52382030E-05
  4.14895047E-06 -5.94378483E-06  6.55674999E-06  2.81377816E-05  1.35206014E-05
 -3.86055733E-05 -8.80371375E-05 -9.17799555E-09 -9.63694087E-06  2.79024160E-04
 -2.48579627E-04 -3.14449820E-09  2.19584819E-05 -1.62086117E-04 -1.53370686E-03
 -6.72384346E-07 -8.00650737E-05 -2.35973227E-03 -3.73177911E-04 -9.50236055E-06
  2.45753833E-04 -2.36615995E-05 -2.88036393E-05 -2.67284642E-08  1.41224814E-04
  2.86762568E-08  3.21022769E-07  7.94423535E-07  7.20315952E-06 -1.40726142E-05
 -9.71410543E-07 -2.64006960E-05 -1.79161512E-05  7.44491206E-05 -2.46672346E-07
  8.42757884E-04  5.91053872E-04  4.95097311E-04  2.95943454E-05  1.43740960E-03
  6.64496071E-04 -8.37121370E-06 -7.83995150E-05 -1.52404981E-05  4.16162965E-06
  5.91795665E-06  6.52861856E-06 -2.81369739E-05 -3.49582395E-07  1.11922073E-07
 -5.60596153E-06  1.81505071E-06  9.87327660E-07  5.40880144E-06  2.92119570E-05
 -1.04062268E-05 -3.28545303E-06 -7.76279140E-04  2.11762766E-04 -9.46512660E-05