 Entering Gaussian System, Link 0=g09
 Initial command:
 /apps/software//g09/l1.exe /scratch/itamar/2705.cluster.abaxnet/Gau-9844.inp -scrdir=/scratch/itamar/2705.cluster.abaxnet/
 Entering Link 1 = /apps/software//g09/l1.exe PID=      9845.
  
 Copyright (c) 1988,1990,1992,1993,1995,1998,2003,2009, Gaussian, Inc.
                  All Rights Reserved.
  
 This is part of the Gaussian(R) 09 program.  It is based on
 the Gaussian(R) 03 system (copyright 2003, Gaussian, Inc.),
 the Gaussian(R) 98 system (copyright 1998, Gaussian, Inc.),
 the Gaussian(R) 94 system (copyright 1995, Gaussian, Inc.),
 the Gaussian 92(TM) system (copyright 1992, Gaussian, Inc.),
 the Gaussian 90(TM) system (copyright 1990, Gaussian, Inc.),
 the Gaussian 88(TM) system (copyright 1988, Gaussian, Inc.),
 the Gaussian 86(TM) system (copyright 1986, Carnegie Mellon
 University), and the Gaussian 82(TM) system (copyright 1983,
 Carnegie Mellon University). Gaussian is a federally registered
 trademark of Gaussian, Inc.
  
 This software contains proprietary and confidential information,
 including trade secrets, belonging to Gaussian, Inc.
  
 This software is provided under written license and may be
 used, copied, transmitted, or stored only in accord with that
 written license.
  
 The following legend is applicable only to US Government
 contracts under FAR:
  
                    RESTRICTED RIGHTS LEGEND
  
 Use, reproduction and disclosure by the US Government is
 subject to restrictions as set forth in subparagraphs (a)
 and (c) of the Commercial Computer Software - Restricted
 Rights clause in FAR 52.227-19.
  
 Gaussian, Inc.
 340 Quinnipiac St., Bldg. 40, Wallingford CT 06492
  
  
 ---------------------------------------------------------------
 Warning -- This program may not be used in any manner that
 competes with the business of Gaussian, Inc. or will provide
 assistance to any competitor of Gaussian, Inc.  The licensee
 of this program is prohibited from giving any competitor of
 Gaussian, Inc. access to this program.  By using this program,
 the user acknowledges that Gaussian, Inc. is engaged in the
 business of creating and licensing software in the field of
 computational chemistry and represents and warrants to the
 licensee that it is not a competitor of Gaussian, Inc. and that
 it will not use this program in any manner prohibited above.
 ---------------------------------------------------------------
  

 Cite this work as:
 Gaussian 09, Revision A.02,
 M. J. Frisch, G. W. Trucks, H. B. Schlegel, G. E. Scuseria, 
 M. A. Robb, J. R. Cheeseman, G. Scalmani, V. Barone, B. Mennucci, 
 G. A. Petersson, H. Nakatsuji, M. Caricato, X. Li, H. P. Hratchian, 
 A. F. Izmaylov, J. Bloino, G. Zheng, J. L. Sonnenberg, M. Hada, 
 M. Ehara, K. Toyota, R. Fukuda, J. Hasegawa, M. Ishida, T. Nakajima, 
 Y. Honda, O. Kitao, H. Nakai, T. Vreven, J. A. Montgomery, Jr., 
 J. E. Peralta, F. Ogliaro, M. Bearpark, J. J. Heyd, E. Brothers, 
 K. N. Kudin, V. N. Staroverov, R. Kobayashi, J. Normand, 
 K. Raghavachari, A. Rendell, J. C. Burant, S. S. Iyengar, J. Tomasi, 
 M. Cossi, N. Rega, J. M. Millam, M. Klene, J. E. Knox, J. B. Cross, 
 V. Bakken, C. Adamo, J. Jaramillo, R. Gomperts, R. E. Stratmann, 
 O. Yazyev, A. J. Austin, R. Cammi, C. Pomelli, J. W. Ochterski, 
 R. L. Martin, K. Morokuma, V. G. Zakrzewski, G. A. Voth, 
 P. Salvador, J. J. Dannenberg, S. Dapprich, A. D. Daniels, 
 O. Farkas, J. B. Foresman, J. V. Ortiz, J. Cioslowski, 
 and D. J. Fox, Gaussian, Inc., Wallingford CT, 2009.
 
 ******************************************
 Gaussian 09:  EM64L-G09RevA.02 11-Jun-2009
                 7-Dec-2021 
 ******************************************
 %Mem=3800MB
 %NProcShared=6
 Will use up to    6 processors via shared memory.
 %chk=/home/itamar/Aromaticity-test-set/T6-Subst-Complex-in-Benzene/NH2/nh2.chk
 -----------------------------
 #P MP2/6-311++G** DENSITY=MP2
 -----------------------------
 1/30=1,38=1/1;
 2/12=2,17=6,18=5,40=1/2;
 3/5=4,6=6,7=1111,11=9,16=1,25=1,30=1,71=1/1,2,3;
 4//1;
 5/5=2,38=5/2;
 8/6=4,10=2/1;
 9/15=1,16=-3/6;
 10/5=1,13=10/2;
 6/7=2,8=2,9=2,10=2,22=2/1;
 99/5=1,9=1/99;
 Leave Link    1 at Tue Dec  7 11:49:25 2021, MaxMem=  498073600 cpu:       0.2
 (Enter /apps/software//g09/l101.exe)
 -----
 X=NH2
 -----
 Symbolic Z-matrix:
 Charge =  0 Multiplicity = 1
 6                     1.17064   1.20084   0.00331 
 6                    -0.22058   1.20637  -0.00482 
 6                    -0.93689   0.00014  -0.00753 
 6                    -0.2206   -1.20621  -0.00476 
 6                     1.17061  -1.20095   0.00334 
 6                     1.8796   -0.00008   0.00765 
 7                    -2.33344  0.        -0.07236 
 1                    -0.76002  -2.14829  -0.01382 
 1                     1.70368  -2.14555   0.00684 
 1                     2.96291   0.00004   0.01456 
 1                     1.70393   2.14532   0.00666 
 1                    -0.7598    2.14856  -0.01373 
 1                    -2.7864   -0.83807   0.26083 
 1                    -2.78691   0.83732   0.26204 
 
 NAtoms=     14 NQM=     14 NQMF=      0 NMic=      0 NMicF=      0 NTot=     14.
                    Isotopes and Nuclear Properties:
 (Nuclear quadrupole moments (NQMom) in fm**2, nuclear magnetic moments (NMagM)
  in nuclear magnetons)

  Atom         1           2           3           4           5           6           7           8           9          10
 IAtWgt=          12          12          12          12          12          12          14           1           1           1
 AtmWgt=  12.0000000  12.0000000  12.0000000  12.0000000  12.0000000  12.0000000  14.0030740   1.0078250   1.0078250   1.0078250
 NucSpn=           0           0           0           0           0           0           2           1           1           1
 AtZEff=   0.0000000   0.0000000   0.0000000   0.0000000   0.0000000   0.0000000   0.0000000   0.0000000   0.0000000   0.0000000
 NQMom=    0.0000000   0.0000000   0.0000000   0.0000000   0.0000000   0.0000000   2.0440000   0.0000000   0.0000000   0.0000000
 NMagM=    0.0000000   0.0000000   0.0000000   0.0000000   0.0000000   0.0000000   0.4037610   2.7928460   2.7928460   2.7928460

  Atom        11          12          13          14
 IAtWgt=           1           1           1           1
 AtmWgt=   1.0078250   1.0078250   1.0078250   1.0078250
 NucSpn=           1           1           1           1
 AtZEff=   0.0000000   0.0000000   0.0000000   0.0000000
 NQMom=    0.0000000   0.0000000   0.0000000   0.0000000
 NMagM=    2.7928460   2.7928460   2.7928460   2.7928460
 Leave Link  101 at Tue Dec  7 11:49:25 2021, MaxMem=  498073600 cpu:       0.2
 (Enter /apps/software//g09/l202.exe)
                          Input orientation:                          
 ---------------------------------------------------------------------
 Center     Atomic      Atomic             Coordinates (Angstroms)
 Number     Number       Type             X           Y           Z
 ---------------------------------------------------------------------
      1          6           0        1.170643    1.200836    0.003313
      2          6           0       -0.220576    1.206375   -0.004820
      3          6           0       -0.936894    0.000140   -0.007529
      4          6           0       -0.220602   -1.206208   -0.004761
      5          6           0        1.170605   -1.200952    0.003338
      6          6           0        1.879603   -0.000076    0.007653
      7          7           0       -2.333441   -0.000002   -0.072364
      8          1           0       -0.760023   -2.148285   -0.013819
      9          1           0        1.703683   -2.145555    0.006840
     10          1           0        2.962912    0.000039    0.014557
     11          1           0        1.703933    2.145321    0.006657
     12          1           0       -0.759799    2.148559   -0.013725
     13          1           0       -2.786400   -0.838067    0.260834
     14          1           0       -2.786907    0.837318    0.262043
 ---------------------------------------------------------------------
                    Distance matrix (angstroms):
                    1          2          3          4          5
     1  C    0.000000
     2  C    1.391254   0.000000
     3  C    2.425593   1.402898   0.000000
     4  C    2.780196   2.412583   1.402982   0.000000
     5  C    2.401788   2.780409   2.425756   1.391241   0.000000
     6  C    1.394573   2.422072   2.816538   2.421935   1.394561
     7  N    3.704908   2.433949   1.398051   2.433843   3.704909
     8  H    3.865796   3.397768   2.155702   1.085618   2.150595
     9  H    3.388580   3.865015   3.402479   2.141350   1.084647
    10  H    2.157375   3.404441   3.899869   3.404433   2.157515
    11  H    1.084648   2.141375   3.402348   3.864804   3.388509
    12  H    2.150599   1.085611   2.155715   3.397834   3.866002
    13  H    4.458882   3.291469   2.048239   2.605645   3.981944
    14  H    3.982623   2.606429   2.048435   3.291368   4.459078
                    6          7          8          9         10
     6  C    0.000000
     7  N    4.213804   0.000000
     8  H    3.403364   2.663492   0.000000
     9  H    2.152679   4.572531   2.463794   0.000000
    10  H    1.083331   5.297066   4.298412   2.487829   0.000000
    11  H    2.152577   4.572641   4.950409   4.290876   2.487433
    12  H    3.403459   2.663851   4.296844   4.950614   4.298315
    13  H    4.747411   1.009230   2.428643   4.683469   5.815296
    14  H    4.747869   1.009239   3.619141   5.397042   5.815729
                   11         12         13         14
    11  H    0.000000
    12  H    2.463818   0.000000
    13  H    5.397064   3.619728   0.000000
    14  H    4.684414   2.429932   1.675386   0.000000
 Stoichiometry    C6H7N
 Framework group  C1[X(C6H7N)]
 Deg. of freedom    36
 Full point group                 C1      NOp   1
 Largest Abelian subgroup         C1      NOp   1
 Largest concise Abelian subgroup C1      NOp   1
                         Standard orientation:                         
 ---------------------------------------------------------------------
 Center     Atomic      Atomic             Coordinates (Angstroms)
 Number     Number       Type             X           Y           Z
 ---------------------------------------------------------------------
      1          6           0        1.170643    1.200836    0.003313
      2          6           0       -0.220576    1.206375   -0.004820
      3          6           0       -0.936894    0.000140   -0.007529
      4          6           0       -0.220602   -1.206208   -0.004761
      5          6           0        1.170605   -1.200952    0.003338
      6          6           0        1.879603   -0.000076    0.007653
      7          7           0       -2.333441   -0.000002   -0.072364
      8          1           0       -0.760023   -2.148285   -0.013819
      9          1           0        1.703683   -2.145555    0.006840
     10          1           0        2.962912    0.000039    0.014557
     11          1           0        1.703933    2.145321    0.006657
     12          1           0       -0.759799    2.148559   -0.013725
     13          1           0       -2.786400   -0.838067    0.260834
     14          1           0       -2.786907    0.837318    0.262043
 ---------------------------------------------------------------------
 Rotational constants (GHZ):      5.6320725      2.5923313      1.7777456
 Leave Link  202 at Tue Dec  7 11:49:25 2021, MaxMem=  498073600 cpu:       0.0
 (Enter /apps/software//g09/l301.exe)
 Standard basis: 6-311++G(d,p) (5D, 7F)
 Ernie: Thresh=  0.10000D-02 Tol=  0.10000D-05 Strict=F.
 There are   203 symmetry adapted basis functions of A   symmetry.
 Integral buffers will be    131072 words long.
 Raffenetti 1 integral format.
 Two-electron integral symmetry is turned on.
   203 basis functions,   315 primitive gaussians,   210 cartesian basis functions
    25 alpha electrons       25 beta electrons
       nuclear repulsion energy       271.3370073551 Hartrees.
 IExCor=    0 DFT=F Ex=HF Corr=None ExCW=0 ScaHFX=  1.000000
 ScaDFX=  1.000000  1.000000  1.000000  1.000000 ScalE2=  1.000000  1.000000
 IRadAn=      0 IRanWt=     -1 IRanGd=            0 ICorTp=0
 NAtoms=   14 NActive=   14 NUniq=   14 SFac= 7.50D-01 NAtFMM=   80 NAOKFM=F Big=F
 Leave Link  301 at Tue Dec  7 11:49:25 2021, MaxMem=  498073600 cpu:       0.2
 (Enter /apps/software//g09/l302.exe)
 NPDir=0 NMtPBC=     1 NCelOv=     1 NCel=       1 NClECP=     1 NCelD=      1
         NCelK=      1 NCelE2=     1 NClLst=     1 CellRange=     0.0.
 One-electron integrals computed using PRISM.
 NBasis=   203 RedAO= T  NBF=   203
 NBsUse=   202 1.00D-06 NBFU=   202
 Leave Link  302 at Tue Dec  7 11:49:25 2021, MaxMem=  498073600 cpu:       1.5
 (Enter /apps/software//g09/l303.exe)
 DipDrv:  MaxL=1.
 Leave Link  303 at Tue Dec  7 11:49:25 2021, MaxMem=  498073600 cpu:       0.2
 (Enter /apps/software//g09/l401.exe)
 Harris functional with IExCor=  205 diagonalized for initial guess.
 ExpMin= 3.60D-02 ExpMax= 6.29D+03 ExpMxC= 9.49D+02 IAcc=3 IRadAn=         0 AccDes= 0.00D+00
 HarFok:  IExCor=  205 AccDes= 0.00D+00 IRadAn=         0 IDoV= 1
 ScaDFX=  1.000000  1.000000  1.000000  1.000000
 FoFCou: FMM=F IPFlag=           0 FMFlag=      100000 FMFlg1=           0
         NFxFlg=           0 DoJE=T BraDBF=F KetDBF=T FulRan=T
         Omega=  0.000000  0.000000  1.000000  0.000000  0.000000 ICntrl=     500 IOpCl=  0
         NMat0=    1 NMatS0=    1 NMatT0=    0 NMatD0=    1 NMtDS0=    0 NMtDT0=    0
         I1Cent=           4 NGrid=           0.
 Petite list used in FoFCou.
 Harris En= -286.283630771343    
 Initial guess orbital symmetries:
       Occupied  (A) (A) (A) (A) (A) (A) (A) (A) (A) (A) (A) (A)
                 (A) (A) (A) (A) (A) (A) (A) (A) (A) (A) (A) (A)
                 (A)
       Virtual   (A) (A) (A) (A) (A) (A) (A) (A) (A) (A) (A) (A)
                 (A) (A) (A) (A) (A) (A) (A) (A) (A) (A) (A) (A)
                 (A) (A) (A) (A) (A) (A) (A) (A) (A) (A) (A) (A)
                 (A) (A) (A) (A) (A) (A) (A) (A) (A) (A) (A) (A)
                 (A) (A) (A) (A) (A) (A) (A) (A) (A) (A) (A) (A)
                 (A) (A) (A) (A) (A) (A) (A) (A) (A) (A) (A) (A)
                 (A) (A) (A) (A) (A) (A) (A) (A) (A) (A) (A) (A)
                 (A) (A) (A) (A) (A) (A) (A) (A) (A) (A) (A) (A)
                 (A) (A) (A) (A) (A) (A) (A) (A) (A) (A) (A) (A)
                 (A) (A) (A) (A) (A) (A) (A) (A) (A) (A) (A) (A)
                 (A) (A) (A) (A) (A) (A) (A) (A) (A) (A) (A) (A)
                 (A) (A) (A) (A) (A) (A) (A) (A) (A) (A) (A) (A)
                 (A) (A) (A) (A) (A) (A) (A) (A) (A) (A) (A) (A)
                 (A) (A) (A) (A) (A) (A) (A) (A) (A) (A) (A) (A)
                 (A) (A) (A) (A) (A) (A) (A) (A) (A)
 The electronic state of the initial guess is 1-A.
 Leave Link  401 at Tue Dec  7 11:49:26 2021, MaxMem=  498073600 cpu:       5.5
 (Enter /apps/software//g09/l502.exe)
 Closed shell SCF:
 Requested convergence on RMS density matrix=1.00D-08 within 128 cycles.
 Requested convergence on MAX density matrix=1.00D-06.
 Requested convergence on             energy=1.00D-06.
 No special actions if energy rises.
 Using DIIS extrapolation, IDIIS=  1040.
 Integral symmetry usage will be decided dynamically.
 Keep R1 ints in memory in canonical form, NReq=250283238.
 IEnd=      153274 IEndB=      153274 NGot=   498073600 MDV=   252548159
 LenX=   252548159 LenY=   252503618
 Symmetry not used in FoFDir.
 MinBra= 0 MaxBra= 2 Meth= 1.
 IRaf=       0 NMat=   1 IRICut=       1 DoRegI=T DoRafI=F ISym2E= 0 JSym2E=0.

 Cycle   1  Pass 1  IDiag  1:
 E= -285.439086372799    
 DIIS: error= 7.12D-02 at cycle   1 NSaved=   1.
 NSaved= 1 IEnMin= 1 EnMin= -285.439086372799     IErMin= 1 ErrMin= 7.12D-02
 ErrMax= 7.12D-02 EMaxC= 1.00D-01 BMatC= 6.45D-01 BMatP= 6.45D-01
 IDIUse=3 WtCom= 2.88D-01 WtEn= 7.12D-01
 Coeff-Com:  0.100D+01
 Coeff-En:   0.100D+01
 Coeff:      0.100D+01
 Gap=     0.455 Goal=   None    Shift=    0.000
 GapD=    0.455 DampG=2.000 DampE=0.500 DampFc=1.0000 IDamp=-1.
 RMSDP=5.64D-03 MaxDP=1.69D-01              OVMax= 1.64D-01

 Cycle   2  Pass 1  IDiag  1:
 E= -285.745008399853     Delta-E=       -0.305922027054 Rises=F Damp=F
 DIIS: error= 2.29D-02 at cycle   2 NSaved=   2.
 NSaved= 2 IEnMin= 2 EnMin= -285.745008399853     IErMin= 2 ErrMin= 2.29D-02
 ErrMax= 2.29D-02 EMaxC= 1.00D-01 BMatC= 6.32D-02 BMatP= 6.45D-01
 IDIUse=3 WtCom= 7.71D-01 WtEn= 2.29D-01
 Coeff-Com:  0.166D+00 0.834D+00
 Coeff-En:   0.000D+00 0.100D+01
 Coeff:      0.128D+00 0.872D+00
 Gap=     0.370 Goal=   None    Shift=    0.000
 RMSDP=5.95D-03 MaxDP=3.19D-01 DE=-3.06D-01 OVMax= 6.00D-02

 Cycle   3  Pass 1  IDiag  1:
 E= -285.798786001393     Delta-E=       -0.053777601540 Rises=F Damp=F
 DIIS: error= 6.85D-03 at cycle   3 NSaved=   3.
 NSaved= 3 IEnMin= 3 EnMin= -285.798786001393     IErMin= 3 ErrMin= 6.85D-03
 ErrMax= 6.85D-03 EMaxC= 1.00D-01 BMatC= 5.81D-03 BMatP= 6.32D-02
 IDIUse=3 WtCom= 9.32D-01 WtEn= 6.85D-02
 Coeff-Com: -0.210D-01 0.200D+00 0.821D+00
 Coeff-En:   0.000D+00 0.000D+00 0.100D+01
 Coeff:     -0.196D-01 0.186D+00 0.833D+00
 Gap=     0.332 Goal=   None    Shift=    0.000
 RMSDP=5.68D-04 MaxDP=1.21D-02 DE=-5.38D-02 OVMax= 1.53D-02

 Cycle   4  Pass 1  IDiag  1:
 E= -285.804279579455     Delta-E=       -0.005493578062 Rises=F Damp=F
 DIIS: error= 8.09D-04 at cycle   4 NSaved=   4.
 NSaved= 4 IEnMin= 4 EnMin= -285.804279579455     IErMin= 4 ErrMin= 8.09D-04
 ErrMax= 8.09D-04 EMaxC= 1.00D-01 BMatC= 5.90D-05 BMatP= 5.81D-03
 IDIUse=3 WtCom= 9.92D-01 WtEn= 8.09D-03
 Coeff-Com: -0.223D-02-0.115D-01 0.145D-01 0.999D+00
 Coeff-En:   0.000D+00 0.000D+00 0.000D+00 0.100D+01
 Coeff:     -0.221D-02-0.114D-01 0.144D-01 0.999D+00
 Gap=     0.334 Goal=   None    Shift=    0.000
 RMSDP=1.52D-04 MaxDP=4.98D-03 DE=-5.49D-03 OVMax= 3.28D-03

 Cycle   5  Pass 1  IDiag  1:
 E= -285.804377569018     Delta-E=       -0.000097989563 Rises=F Damp=F
 DIIS: error= 4.48D-04 at cycle   5 NSaved=   5.
 NSaved= 5 IEnMin= 5 EnMin= -285.804377569018     IErMin= 5 ErrMin= 4.48D-04
 ErrMax= 4.48D-04 EMaxC= 1.00D-01 BMatC= 7.98D-06 BMatP= 5.90D-05
 IDIUse=3 WtCom= 9.96D-01 WtEn= 4.48D-03
 Coeff-Com:  0.116D-02-0.156D-01-0.564D-01 0.980D-01 0.973D+00
 Coeff-En:   0.000D+00 0.000D+00 0.000D+00 0.000D+00 0.100D+01
 Coeff:      0.116D-02-0.155D-01-0.561D-01 0.975D-01 0.973D+00
 Gap=     0.334 Goal=   None    Shift=    0.000
 RMSDP=6.04D-05 MaxDP=2.81D-03 DE=-9.80D-05 OVMax= 1.84D-03

 Cycle   6  Pass 1  IDiag  1:
 E= -285.804393095877     Delta-E=       -0.000015526859 Rises=F Damp=F
 DIIS: error= 1.71D-04 at cycle   6 NSaved=   6.
 NSaved= 6 IEnMin= 6 EnMin= -285.804393095877     IErMin= 6 ErrMin= 1.71D-04
 ErrMax= 1.71D-04 EMaxC= 1.00D-01 BMatC= 1.50D-06 BMatP= 7.98D-06
 IDIUse=3 WtCom= 9.98D-01 WtEn= 1.71D-03
 Coeff-Com:  0.514D-03-0.278D-02-0.155D-01-0.966D-01 0.257D+00 0.857D+00
 Coeff-En:   0.000D+00 0.000D+00 0.000D+00 0.000D+00 0.000D+00 0.100D+01
 Coeff:      0.513D-03-0.277D-02-0.155D-01-0.964D-01 0.257D+00 0.857D+00
 Gap=     0.334 Goal=   None    Shift=    0.000
 RMSDP=2.15D-05 MaxDP=7.28D-04 DE=-1.55D-05 OVMax= 6.46D-04

 Cycle   7  Pass 1  IDiag  1:
 E= -285.804395689948     Delta-E=       -0.000002594071 Rises=F Damp=F
 DIIS: error= 7.03D-05 at cycle   7 NSaved=   7.
 NSaved= 7 IEnMin= 7 EnMin= -285.804395689948     IErMin= 7 ErrMin= 7.03D-05
 ErrMax= 7.03D-05 EMaxC= 1.00D-01 BMatC= 1.29D-07 BMatP= 1.50D-06
 IDIUse=1 WtCom= 1.00D+00 WtEn= 0.00D+00
 Coeff-Com: -0.800D-04 0.142D-02 0.488D-02-0.179D-01-0.644D-01 0.926D-02
 Coeff-Com:  0.107D+01
 Coeff:     -0.800D-04 0.142D-02 0.488D-02-0.179D-01-0.644D-01 0.926D-02
 Coeff:      0.107D+01
 Gap=     0.334 Goal=   None    Shift=    0.000
 RMSDP=1.24D-05 MaxDP=5.12D-04 DE=-2.59D-06 OVMax= 3.51D-04

 Cycle   8  Pass 1  IDiag  1:
 E= -285.804396072217     Delta-E=       -0.000000382269 Rises=F Damp=F
 DIIS: error= 2.71D-05 at cycle   8 NSaved=   8.
 NSaved= 8 IEnMin= 8 EnMin= -285.804396072217     IErMin= 8 ErrMin= 2.71D-05
 ErrMax= 2.71D-05 EMaxC= 1.00D-01 BMatC= 2.72D-08 BMatP= 1.29D-07
 IDIUse=1 WtCom= 1.00D+00 WtEn= 0.00D+00
 Coeff-Com: -0.106D-03 0.814D-03 0.370D-02 0.129D-01-0.484D-01-0.166D+00
 Coeff-Com:  0.134D+00 0.106D+01
 Coeff:     -0.106D-03 0.814D-03 0.370D-02 0.129D-01-0.484D-01-0.166D+00
 Coeff:      0.134D+00 0.106D+01
 Gap=     0.334 Goal=   None    Shift=    0.000
 RMSDP=4.10D-06 MaxDP=9.04D-05 DE=-3.82D-07 OVMax= 1.72D-04

 Cycle   9  Pass 1  IDiag  1:
 E= -285.804396171386     Delta-E=       -0.000000099169 Rises=F Damp=F
 DIIS: error= 1.37D-05 at cycle   9 NSaved=   9.
 NSaved= 9 IEnMin= 9 EnMin= -285.804396171386     IErMin= 9 ErrMin= 1.37D-05
 ErrMax= 1.37D-05 EMaxC= 1.00D-01 BMatC= 4.04D-09 BMatP= 2.72D-08
 IDIUse=1 WtCom= 1.00D+00 WtEn= 0.00D+00
 Coeff-Com:  0.294D-04-0.309D-03-0.138D-02-0.213D-02 0.237D-01 0.333D-01
 Coeff-Com: -0.201D+00-0.123D+00 0.127D+01
 Coeff:      0.294D-04-0.309D-03-0.138D-02-0.213D-02 0.237D-01 0.333D-01
 Coeff:     -0.201D+00-0.123D+00 0.127D+01
 Gap=     0.334 Goal=   None    Shift=    0.000
 RMSDP=1.41D-06 MaxDP=3.57D-05 DE=-9.92D-08 OVMax= 1.00D-04

 Cycle  10  Pass 1  IDiag  1:
 E= -285.804396192218     Delta-E=       -0.000000020832 Rises=F Damp=F
 DIIS: error= 4.98D-06 at cycle  10 NSaved=  10.
 NSaved=10 IEnMin=10 EnMin= -285.804396192218     IErMin=10 ErrMin= 4.98D-06
 ErrMax= 4.98D-06 EMaxC= 1.00D-01 BMatC= 8.95D-10 BMatP= 4.04D-09
 IDIUse=1 WtCom= 1.00D+00 WtEn= 0.00D+00
 Coeff-Com:  0.197D-04-0.137D-03-0.631D-03-0.296D-02 0.877D-02 0.311D-01
 Coeff-Com: -0.286D-01-0.150D+00-0.229D+00 0.137D+01
 Coeff:      0.197D-04-0.137D-03-0.631D-03-0.296D-02 0.877D-02 0.311D-01
 Coeff:     -0.286D-01-0.150D+00-0.229D+00 0.137D+01
 Gap=     0.334 Goal=   None    Shift=    0.000
 RMSDP=1.02D-06 MaxDP=5.42D-05 DE=-2.08D-08 OVMax= 5.71D-05

 Cycle  11  Pass 1  IDiag  1:
 E= -285.804396197154     Delta-E=       -0.000000004936 Rises=F Damp=F
 DIIS: error= 1.60D-06 at cycle  11 NSaved=  11.
 NSaved=11 IEnMin=11 EnMin= -285.804396197154     IErMin=11 ErrMin= 1.60D-06
 ErrMax= 1.60D-06 EMaxC= 1.00D-01 BMatC= 1.02D-10 BMatP= 8.95D-10
 IDIUse=1 WtCom= 1.00D+00 WtEn= 0.00D+00
 Coeff-Com: -0.291D-05 0.450D-04 0.200D-03 0.749D-05-0.343D-02-0.247D-02
 Coeff-Com:  0.337D-01 0.321D-01-0.281D+00 0.880D-01 0.113D+01
 Coeff:     -0.291D-05 0.450D-04 0.200D-03 0.749D-05-0.343D-02-0.247D-02
 Coeff:      0.337D-01 0.321D-01-0.281D+00 0.880D-01 0.113D+01
 Gap=     0.334 Goal=   None    Shift=    0.000
 RMSDP=3.35D-07 MaxDP=1.49D-05 DE=-4.94D-09 OVMax= 2.08D-05

 Cycle  12  Pass 1  IDiag  1:
 E= -285.804396197641     Delta-E=       -0.000000000487 Rises=F Damp=F
 DIIS: error= 2.41D-07 at cycle  12 NSaved=  12.
 NSaved=12 IEnMin=12 EnMin= -285.804396197641     IErMin=12 ErrMin= 2.41D-07
 ErrMax= 2.41D-07 EMaxC= 1.00D-01 BMatC= 6.29D-12 BMatP= 1.02D-10
 IDIUse=1 WtCom= 1.00D+00 WtEn= 0.00D+00
 Coeff-Com: -0.110D-05 0.651D-05 0.247D-04 0.170D-03-0.301D-03-0.164D-02
 Coeff-Com: -0.308D-02 0.103D-01 0.368D-01-0.120D+00-0.489D-01 0.113D+01
 Coeff:     -0.110D-05 0.651D-05 0.247D-04 0.170D-03-0.301D-03-0.164D-02
 Coeff:     -0.308D-02 0.103D-01 0.368D-01-0.120D+00-0.489D-01 0.113D+01
 Gap=     0.334 Goal=   None    Shift=    0.000
 RMSDP=8.04D-08 MaxDP=2.80D-06 DE=-4.87D-10 OVMax= 4.07D-06

 Cycle  13  Pass 1  IDiag  1:
 E= -285.804396197664     Delta-E=       -0.000000000023 Rises=F Damp=F
 DIIS: error= 6.95D-08 at cycle  13 NSaved=  13.
 NSaved=13 IEnMin=13 EnMin= -285.804396197664     IErMin=13 ErrMin= 6.95D-08
 ErrMax= 6.95D-08 EMaxC= 1.00D-01 BMatC= 5.59D-13 BMatP= 6.29D-12
 IDIUse=1 WtCom= 1.00D+00 WtEn= 0.00D+00
 Coeff-Com:  0.756D-07-0.233D-05-0.114D-04 0.150D-04 0.212D-03 0.101D-03
 Coeff-Com: -0.289D-02-0.352D-03 0.214D-01-0.192D-01-0.867D-01 0.110D+00
 Coeff-Com:  0.978D+00
 Coeff:      0.756D-07-0.233D-05-0.114D-04 0.150D-04 0.212D-03 0.101D-03
 Coeff:     -0.289D-02-0.352D-03 0.214D-01-0.192D-01-0.867D-01 0.110D+00
 Coeff:      0.978D+00
 Gap=     0.334 Goal=   None    Shift=    0.000
 RMSDP=2.17D-08 MaxDP=9.53D-07 DE=-2.33D-11 OVMax= 7.50D-07

 Cycle  14  Pass 1  IDiag  1:
 E= -285.804396197665     Delta-E=       -0.000000000001 Rises=F Damp=F
 DIIS: error= 1.79D-08 at cycle  14 NSaved=  14.
 NSaved=14 IEnMin=14 EnMin= -285.804396197665     IErMin=14 ErrMin= 1.79D-08
 ErrMax= 1.79D-08 EMaxC= 1.00D-01 BMatC= 6.71D-14 BMatP= 5.59D-13
 IDIUse=1 WtCom= 1.00D+00 WtEn= 0.00D+00
 Coeff-Com:  0.134D-06-0.116D-05-0.505D-05-0.199D-04 0.774D-04 0.241D-03
 Coeff-Com: -0.347D-03-0.930D-03-0.429D-03 0.124D-01-0.107D-01-0.110D+00
 Coeff-Com:  0.186D+00 0.924D+00
 Coeff:      0.134D-06-0.116D-05-0.505D-05-0.199D-04 0.774D-04 0.241D-03
 Coeff:     -0.347D-03-0.930D-03-0.429D-03 0.124D-01-0.107D-01-0.110D+00
 Coeff:      0.186D+00 0.924D+00
 Gap=     0.334 Goal=   None    Shift=    0.000
 RMSDP=6.87D-09 MaxDP=3.74D-07 DE=-9.09D-13 OVMax= 1.16D-07

 SCF Done:  E(RHF) =  -285.804396198     A.U. after   14 cycles
             Convg  =    0.6867D-08             -V/T =  2.0013
 KE= 2.854386454171D+02 PE=-1.208842021000D+03 EE= 3.662619720299D+02
 Leave Link  502 at Tue Dec  7 11:49:45 2021, MaxMem=  498073600 cpu:     111.3
 (Enter /apps/software//g09/l801.exe)
 ExpMin= 3.60D-02 ExpMax= 6.29D+03 ExpMxC= 9.49D+02 IAcc=3 IRadAn=         5 AccDes= 0.00D+00
 HarFok:  IExCor=  205 AccDes= 0.00D+00 IRadAn=         5 IDoV=-2
 ScaDFX=  1.000000  1.000000  1.000000  1.000000
 Largest valence mixing into a core orbital is  1.34D-04
 Largest core mixing into a valence orbital is  4.06D-05
 Range of M.O.s used for correlation:     8   202
 NBasis=   203 NAE=    25 NBE=    25 NFC=     7 NFV=     0
 NROrb=    195 NOA=    18 NOB=    18 NVA=   177 NVB=   177

 **** Warning!!: The largest alpha MO coefficient is  0.14683992D+03

 Leave Link  801 at Tue Dec  7 11:49:45 2021, MaxMem=  498073600 cpu:       1.4
 (Enter /apps/software//g09/l906.exe)
 Frozen-core derivative calculation, NFC=   7 NFV=   0.
 FulOut=F Deriv=T AODrv=F NAtomX=    14
   MMem=         106  MDisk=          18 MDiskD=          18
  W3Min=     1060500 MinDsk=     1532705 NBas6D=         210
 NBas2D=       22449    NTT=       22155    LW2=     2040000
    MDV=   497593589 MDiskM=       32777 NBas2p=       21973
 Fully direct method using O(ONN) memory.
 IMap=   1   2   3   4   5   6   7   8   9  10  11  12  13  14  15  16  17  18  19  20
 IMap=  21  22  23  24  25
 JobTyp=1 Pass  1:  I=   8 to  23 NPSUse=  6 ParTrn=T ParDer=T DoDerP=T.
 JobTyp=1 Pass  2:  I=  24 to  25 NPSUse=  6 ParTrn=T ParDer=T DoDerP=T.
 Spin components of T(2) and E(2):
     alpha-alpha T2 =       0.4980892354D-01 E2=     -0.1327785891D+00
     alpha-beta  T2 =       0.2606899585D+00 E2=     -0.7456811874D+00
     beta-beta   T2 =       0.4980892354D-01 E2=     -0.1327785891D+00
 The integrals were generated   2 times.
 ANorm=    0.1166322342D+01
 E2 =    -0.1011238366D+01 EUMP2 =    -0.28681563456320D+03
 Leave Link  906 at Tue Dec  7 11:50:15 2021, MaxMem=  498073600 cpu:     179.4
 (Enter /apps/software//g09/l1002.exe)
 Minotr:  Closed shell wavefunction.
          Computing MP2/KS-MP2 derivatives.
          Using Z-Vector for PSCF gradient.
          Skipping F1 and S1 gradient terms here.
          Frozen-core window.
          Direct CPHF calculation.
          Differentiating once with respect to electric field.
                with respect to dipole field.
          Electric field/nuclear overlap derivatives assumed to be zero.
          Requested convergence is 1.0D-10 RMS, and 1.0D-09 maximum.
          NewPWx=F KeepS1=T KeepF1=T KeepIn=T MapXYZ=F SortEE=F KeepMc=T.
          MDV=     498073484 using IRadAn=       0.
          Keep R1 ints in memory in canonical form, NReq=246254387.
 Symmetry not used in FoFDir.
 MinBra= 0 MaxBra= 2 Meth= 1.
 IRaf=       0 NMat=   1 IRICut=       1 DoRegI=T DoRafI=F ISym2E= 0 JSym2E=0.
          Solving linear equations separately, MaxMat=       0.
          There are     1 degrees of freedom in the 1st order CPHF.  IDoFFX=0.
 LinEq1:  Iter=  0 NonCon=     1 RMS=3.47D-03 Max=5.60D-02
 AX will form     1 AO Fock derivatives at one time.
 LinEq1:  Iter=  1 NonCon=     1 RMS=8.43D-04 Max=1.25D-02
 LinEq1:  Iter=  2 NonCon=     1 RMS=3.64D-04 Max=8.52D-03
 LinEq1:  Iter=  3 NonCon=     1 RMS=1.05D-04 Max=2.75D-03
 LinEq1:  Iter=  4 NonCon=     1 RMS=3.46D-05 Max=6.37D-04
 LinEq1:  Iter=  5 NonCon=     1 RMS=1.36D-05 Max=2.15D-04
 LinEq1:  Iter=  6 NonCon=     1 RMS=3.97D-06 Max=6.67D-05
 LinEq1:  Iter=  7 NonCon=     1 RMS=1.26D-06 Max=1.76D-05
 LinEq1:  Iter=  8 NonCon=     1 RMS=4.39D-07 Max=7.45D-06
 LinEq1:  Iter=  9 NonCon=     1 RMS=9.86D-08 Max=1.14D-06
 LinEq1:  Iter= 10 NonCon=     1 RMS=3.73D-08 Max=4.89D-07
 LinEq1:  Iter= 11 NonCon=     1 RMS=8.59D-09 Max=7.51D-08
 LinEq1:  Iter= 12 NonCon=     1 RMS=2.14D-09 Max=2.00D-08
 LinEq1:  Iter= 13 NonCon=     1 RMS=6.04D-10 Max=4.98D-09
 LinEq1:  Iter= 14 NonCon=     1 RMS=1.32D-10 Max=1.69D-09
 LinEq1:  Iter= 15 NonCon=     0 RMS=2.73D-11 Max=2.22D-10
 Linear equations converged to 1.000D-10 1.000D-09 after    15 iterations.
 End of Minotr Frequency-dependent properties file   721 does not exist.
 End of Minotr Frequency-dependent properties file   722 does not exist.
 Leave Link 1002 at Tue Dec  7 11:50:35 2021, MaxMem=  498073600 cpu:     119.8
 (Enter /apps/software//g09/l601.exe)
 Copying SCF densities to generalized density rwf, IOpCl= 0 IROHF=0.

 **********************************************************************

            Population analysis using the MP2 density.

 **********************************************************************

 Orbital symmetries:
       Occupied  (A) (A) (A) (A) (A) (A) (A) (A) (A) (A) (A) (A)
                 (A) (A) (A) (A) (A) (A) (A) (A) (A) (A) (A) (A)
                 (A)
       Virtual   (A) (A) (A) (A) (A) (A) (A) (A) (A) (A) (A) (A)
                 (A) (A) (A) (A) (A) (A) (A) (A) (A) (A) (A) (A)
                 (A) (A) (A) (A) (A) (A) (A) (A) (A) (A) (A) (A)
                 (A) (A) (A) (A) (A) (A) (A) (A) (A) (A) (A) (A)
                 (A) (A) (A) (A) (A) (A) (A) (A) (A) (A) (A) (A)
                 (A) (A) (A) (A) (A) (A) (A) (A) (A) (A) (A) (A)
                 (A) (A) (A) (A) (A) (A) (A) (A) (A) (A) (A) (A)
                 (A) (A) (A) (A) (A) (A) (A) (A) (A) (A) (A) (A)
                 (A) (A) (A) (A) (A) (A) (A) (A) (A) (A) (A) (A)
                 (A) (A) (A) (A) (A) (A) (A) (A) (A) (A) (A) (A)
                 (A) (A) (A) (A) (A) (A) (A) (A) (A) (A) (A) (A)
                 (A) (A) (A) (A) (A) (A) (A) (A) (A) (A) (A) (A)
                 (A) (A) (A) (A) (A) (A) (A) (A) (A) (A) (A) (A)
                 (A) (A) (A) (A) (A) (A) (A) (A) (A) (A) (A) (A)
                 (A) (A) (A) (A) (A) (A) (A) (A) (A)
 The electronic state is 1-A.
 Alpha  occ. eigenvalues --  -15.56614 -11.28208 -11.23753 -11.23750 -11.22612
 Alpha  occ. eigenvalues --  -11.22610 -11.22139  -1.22518  -1.12806  -1.01343
 Alpha  occ. eigenvalues --   -0.98746  -0.83270  -0.81466  -0.70725  -0.68779
 Alpha  occ. eigenvalues --   -0.65755  -0.60009  -0.59502  -0.58295  -0.53346
 Alpha  occ. eigenvalues --   -0.50885  -0.48983  -0.44739  -0.33687  -0.29432
 Alpha virt. eigenvalues --    0.03990   0.04859   0.04884   0.06538   0.06597
 Alpha virt. eigenvalues --    0.09457   0.10206   0.11169   0.12014   0.12939
 Alpha virt. eigenvalues --    0.13876   0.15426   0.16259   0.17860   0.17897
 Alpha virt. eigenvalues --    0.18403   0.18434   0.18525   0.20112   0.20513
 Alpha virt. eigenvalues --    0.20778   0.21359   0.21666   0.22077   0.22834
 Alpha virt. eigenvalues --    0.24091   0.24360   0.25429   0.26079   0.26161
 Alpha virt. eigenvalues --    0.27338   0.28371   0.29807   0.30653   0.32512
 Alpha virt. eigenvalues --    0.34379   0.35295   0.36411   0.37842   0.39671
 Alpha virt. eigenvalues --    0.41114   0.41226   0.43198   0.43722   0.46358
 Alpha virt. eigenvalues --    0.50672   0.51357   0.53208   0.57253   0.62747
 Alpha virt. eigenvalues --    0.64461   0.71761   0.72421   0.73008   0.74727
 Alpha virt. eigenvalues --    0.75077   0.76101   0.76494   0.76542   0.78392
 Alpha virt. eigenvalues --    0.81620   0.81882   0.83436   0.85767   0.87541
 Alpha virt. eigenvalues --    0.89631   0.93109   0.94920   0.95746   0.97838
 Alpha virt. eigenvalues --    0.99586   1.01394   1.02409   1.03729   1.05693
 Alpha virt. eigenvalues --    1.07300   1.09468   1.11200   1.11782   1.12681
 Alpha virt. eigenvalues --    1.13242   1.16293   1.20248   1.22698   1.22865
 Alpha virt. eigenvalues --    1.25747   1.32986   1.34311   1.39555   1.41462
 Alpha virt. eigenvalues --    1.48799   1.52293   1.66133   1.70716   1.72912
 Alpha virt. eigenvalues --    1.78035   1.80242   1.80391   1.83552   1.84090
 Alpha virt. eigenvalues --    1.84653   1.86748   1.90401   1.92208   1.94318
 Alpha virt. eigenvalues --    1.97141   1.98551   2.02045   2.05782   2.11958
 Alpha virt. eigenvalues --    2.12021   2.17448   2.19430   2.23331   2.24059
 Alpha virt. eigenvalues --    2.24893   2.25234   2.25421   2.25618   2.33317
 Alpha virt. eigenvalues --    2.37625   2.39762   2.39770   2.43138   2.58829
 Alpha virt. eigenvalues --    2.60190   2.67075   2.75020   2.78065   2.78582
 Alpha virt. eigenvalues --    2.83290   2.90817   2.91291   2.93047   2.97119
 Alpha virt. eigenvalues --    3.00683   3.01820   3.02228   3.03887   3.04861
 Alpha virt. eigenvalues --    3.05098   3.07923   3.11065   3.14528   3.19860
 Alpha virt. eigenvalues --    3.21803   3.23534   3.27443   3.30752   3.32778
 Alpha virt. eigenvalues --    3.32848   3.39474   3.48761   3.58289   3.69567
 Alpha virt. eigenvalues --    3.76414   3.78277   3.85730   3.91968   3.93095
 Alpha virt. eigenvalues --    4.04314   4.27423   4.40814   4.46112   4.49452
 Alpha virt. eigenvalues --    4.57024   4.58170   5.25607   5.29258   5.48952
 Alpha virt. eigenvalues --   24.75780  25.11200  25.13068  25.23787  25.27034
 Alpha virt. eigenvalues --   25.36238  37.07498
          Condensed to atoms (all electrons):
              1          2          3          4          5          6
     1  C    6.201404  -0.782975  -0.372240   1.283960  -0.571250   0.088217
     2  C   -0.782975   9.468009  -0.476320  -3.116262   1.284019  -0.599003
     3  C   -0.372240  -0.476320   7.873405  -0.479298  -0.373562   0.471208
     4  C    1.283960  -3.116262  -0.479298   9.465659  -0.781678  -0.597754
     5  C   -0.571250   1.284019  -0.373562  -0.781678   6.202104   0.087186
     6  C    0.088217  -0.599003   0.471208  -0.597754   0.087186   6.720337
     7  N    0.022872  -0.073934  -0.277402  -0.071560   0.023335  -0.031819
     8  H    0.062944  -0.130164  -0.194514   0.615570  -0.083576  -0.002599
     9  H   -0.039444   0.096409   0.014213  -0.143929   0.450777  -0.113187
    10  H   -0.094668  -0.021433   0.055708  -0.021448  -0.094694   0.467143
    11  H    0.450762  -0.143923   0.014185   0.096362  -0.039431  -0.113119
    12  H   -0.083566   0.615770  -0.194618  -0.130259   0.062953  -0.002607
    13  H   -0.015389   0.077165   0.008210  -0.110440   0.015426  -0.000260
    14  H    0.015439  -0.110446   0.008172   0.077176  -0.015393  -0.000245
              7          8          9         10         11         12
     1  C    0.022872   0.062944  -0.039444  -0.094668   0.450762  -0.083566
     2  C   -0.073934  -0.130164   0.096409  -0.021433  -0.143923   0.615770
     3  C   -0.277402  -0.194514   0.014213   0.055708   0.014185  -0.194618
     4  C   -0.071560   0.615570  -0.143929  -0.021448   0.096362  -0.130259
     5  C    0.023335  -0.083576   0.450777  -0.094694  -0.039431   0.062953
     6  C   -0.031819  -0.002599  -0.113187   0.467143  -0.113119  -0.002607
     7  N    7.120473  -0.014312  -0.001475  -0.000270  -0.001475  -0.014301
     8  H   -0.014312   0.616446  -0.019156  -0.001831   0.003717  -0.006048
     9  H   -0.001475  -0.019156   0.581661  -0.011357  -0.003495   0.003718
    10  H   -0.000270  -0.001831  -0.011357   0.577337  -0.011364  -0.001831
    11  H   -0.001475   0.003717  -0.003495  -0.011364   0.581669  -0.019147
    12  H   -0.014301  -0.006048   0.003718  -0.001831  -0.019147   0.616352
    13  H    0.344636  -0.000888   0.001184   0.000055  -0.000469   0.003567
    14  H    0.344674   0.003568  -0.000470   0.000055   0.001183  -0.000905
             13         14
     1  C   -0.015389   0.015439
     2  C    0.077165  -0.110446
     3  C    0.008210   0.008172
     4  C   -0.110440   0.077176
     5  C    0.015426  -0.015393
     6  C   -0.000260  -0.000245
     7  N    0.344636   0.344674
     8  H   -0.000888   0.003568
     9  H    0.001184  -0.000470
    10  H    0.000055   0.000055
    11  H   -0.000469   0.001183
    12  H    0.003567  -0.000905
    13  H    0.472807  -0.043563
    14  H   -0.043563   0.472792
 Mulliken atomic charges:
              1
     1  C   -0.166064
     2  C   -0.086912
     3  C   -0.077147
     4  C   -0.086100
     5  C   -0.166217
     6  C   -0.373500
     7  N   -0.369443
     8  H    0.150843
     9  H    0.184551
    10  H    0.158599
    11  H    0.184546
    12  H    0.150923
    13  H    0.247959
    14  H    0.247962
 Sum of Mulliken atomic charges =   0.00000
 Mulliken charges with hydrogens summed into heavy atoms:
              1
     1  C    0.018482
     2  C    0.064011
     3  C   -0.077147
     4  C    0.064744
     5  C    0.018334
     6  C   -0.214901
     7  N    0.126479
 Sum of Mulliken charges with hydrogens summed into heavy atoms =   0.00000
 Electronic spatial extent (au):  <R**2>=            689.2461
 Charge=              0.0000 electrons
 Dipole moment (field-independent basis, Debye):
    X=             -1.1356    Y=             -0.0007    Z=              0.9771  Tot=              1.4981
 Quadrupole moment (field-independent basis, Debye-Ang):
   XX=            -36.2506   YY=            -37.4068   ZZ=            -48.0933
   XY=              0.0019   XZ=             -3.1999   YZ=              0.0019
 Traceless Quadrupole moment (field-independent basis, Debye-Ang):
   XX=              4.3330   YY=              3.1767   ZZ=             -7.5097
   XY=              0.0019   XZ=             -3.1999   YZ=              0.0019
 Octapole moment (field-independent basis, Debye-Ang**2):
  XXX=            -14.2076  YYY=             -0.0022  ZZZ=              0.6236  XYY=             -6.0101
  XXY=             -0.0042  XXZ=              9.7070  XZZ=             -2.2661  YZZ=              0.0007
  YYZ=              0.5495  XYZ=             -0.0066
 Hexadecapole moment (field-independent basis, Debye-Ang**3):
 XXXX=           -518.8463 YYYY=           -291.0634 ZZZZ=            -60.7209 XXXY=              0.0148
 XXXZ=            -29.1875 YYYX=              0.0030 YYYZ=              0.0015 ZZZX=             -2.9409
 ZZZY=              0.0022 XXYY=           -126.9104 XXZZ=           -123.8039 YYZZ=            -69.8895
 XXYZ=              0.0160 YYXZ=             -2.3157 ZZXY=             -0.0019
 N-N= 2.713370073551D+02 E-N=-1.209757117438D+03  KE= 2.866692714117D+02
 No NMR shielding tensors so no spin-rotation constants.
 Leave Link  601 at Tue Dec  7 11:50:36 2021, MaxMem=  498073600 cpu:       1.6
 (Enter /apps/software//g09/l9999.exe)
 1\1\GINC-DLT06\SP\RMP2-FC\6-311++G(d,p)\C6H7N1\ITAMAR\07-Dec-2021\0\\#
 P MP2/6-311++G** DENSITY=MP2\\X=NH2\\0,1\C,0,1.170643,1.200836,0.00331
 3\C,0,-0.220576,1.206375,-0.00482\C,0,-0.936894,0.00014,-0.007529\C,0,
 -0.220602,-1.206208,-0.004761\C,0,1.170605,-1.200952,0.003338\C,0,1.87
 9603,-0.000076,0.007653\N,0,-2.333441,-0.000002,-0.072364\H,0,-0.76002
 3,-2.148285,-0.013819\H,0,1.703683,-2.145555,0.00684\H,0,2.962912,0.00
 0039,0.014557\H,0,1.703933,2.145321,0.006657\H,0,-0.759799,2.148559,-0
 .013725\H,0,-2.7864,-0.838067,0.260834\H,0,-2.786907,0.837318,0.262043
 \\Version=EM64L-G09RevA.02\State=1-A\HF=-285.8043962\MP2=-286.8156346\
 RMSD=6.867e-09\Dipole=-0.446792,-0.0002621,0.3844034\Quadrupole=3.2214
 648,2.3618221,-5.5832868,0.0014311,-2.3790826,0.0014324\PG=C01 [X(C6H7
 N1)]\\@


 SILVERMAN'S PARADOX - IF MURPHY'S LAW CAN GO WRONG, IT WILL.
 Job cpu time:  0 days  0 hours  7 minutes  2.4 seconds.
 File lengths (MBytes):  RWF=     20 Int=      0 D2E=      0 Chk=      4 Scr=      1
 Normal termination of Gaussian 09 at Tue Dec  7 11:50:36 2021.
