C8H8_2+                                                                 
SP        RMP2-FC                                                     6-311++G(d,p)       
Number of atoms                            I               16
Info1-9                                    I   N=           9
          31          25           0           0           0         110
           1           2           1
Charge                                     I                2
Multiplicity                               I                1
Number of electrons                        I               54
Number of alpha electrons                  I               27
Number of beta electrons                   I               27
Number of basis functions                  I              232
Number of independent functions            I              230
Number of point charges in /Mol/           I                0
Number of translation vectors              I                0
Atomic numbers                             I   N=          16
           6           6           6           6           6           6
           6           6           1           1           1           1
           1           1           1           1
Nuclear charges                            R   N=          16
  6.00000000E+00  6.00000000E+00  6.00000000E+00  6.00000000E+00  6.00000000E+00
  6.00000000E+00  6.00000000E+00  6.00000000E+00  1.00000000E+00  1.00000000E+00
  1.00000000E+00  1.00000000E+00  1.00000000E+00  1.00000000E+00  1.00000000E+00
  1.00000000E+00
Current cartesian coordinates              R   N=          48
  3.21199029E+00 -1.33043724E+00  0.00000000E+00  3.21199029E+00  1.33045400E+00
  0.00000000E+00  1.33043376E+00  3.21199039E+00  0.00000000E+00 -1.33045559E+00
  3.21199228E+00  0.00000000E+00 -3.21199197E+00  1.33043575E+00  0.00000000E+00
 -3.21199197E+00 -1.33045360E+00  0.00000000E+00 -1.33043167E+00 -3.21198431E+00
  0.00000000E+00  1.33045957E+00 -3.21199754E+00  0.00000000E+00  5.11249954E+00
 -2.11766718E+00  0.00000000E+00  5.11249696E+00  2.11768718E+00  0.00000000E+00
  2.11765426E+00  5.11250531E+00  0.00000000E+00 -2.11770200E+00  5.11249328E+00
  0.00000000E+00 -5.11250312E+00  2.11766381E+00  0.00000000E+00 -5.11249865E+00
 -2.11768489E+00  0.00000000E+00 -2.11765972E+00 -5.11249546E+00  0.00000000E+00
  2.11769653E+00 -5.11250044E+00  0.00000000E+00
Force Field                                I                0
Int Atom Types                             I   N=          16
           0           0           0           0           0           0
           0           0           0           0           0           0
           0           0           0           0
MM charges                                 R   N=          16
  0.00000000E+00  0.00000000E+00  0.00000000E+00  0.00000000E+00  0.00000000E+00
  0.00000000E+00  0.00000000E+00  0.00000000E+00  0.00000000E+00  0.00000000E+00
  0.00000000E+00  0.00000000E+00  0.00000000E+00  0.00000000E+00  0.00000000E+00
  0.00000000E+00
Integer atomic weights                     I   N=          16
          12          12          12          12          12          12
          12          12           1           1           1           1
           1           1           1           1
Real atomic weights                        R   N=          16
  1.20000000E+01  1.20000000E+01  1.20000000E+01  1.20000000E+01  1.20000000E+01
  1.20000000E+01  1.20000000E+01  1.20000000E+01  1.00782504E+00  1.00782504E+00
  1.00782504E+00  1.00782504E+00  1.00782504E+00  1.00782504E+00  1.00782504E+00
  1.00782504E+00
Atom fragment info                         I   N=          16
           0           0           0           0           0           0
           0           0           0           0           0           0
           0           0           0           0
Atom residue num                           I   N=          16
           0           0           0           0           0           0
           0           0           0           0           0           0
           0           0           0           0
Nuclear spins                              I   N=          16
           0           0           0           0           0           0
           0           0           1           1           1           1
           1           1           1           1
Nuclear ZEff                               R   N=          16
 -3.60000000E+00 -3.60000000E+00 -3.60000000E+00 -3.60000000E+00 -3.60000000E+00
 -3.60000000E+00 -3.60000000E+00 -3.60000000E+00 -1.00000000E+00 -1.00000000E+00
 -1.00000000E+00 -1.00000000E+00 -1.00000000E+00 -1.00000000E+00 -1.00000000E+00
 -1.00000000E+00
Nuclear QMom                               R   N=          16
  0.00000000E+00  0.00000000E+00  0.00000000E+00  0.00000000E+00  0.00000000E+00
  0.00000000E+00  0.00000000E+00  0.00000000E+00  0.00000000E+00  0.00000000E+00
  0.00000000E+00  0.00000000E+00  0.00000000E+00  0.00000000E+00  0.00000000E+00
  0.00000000E+00
Nuclear GFac                               R   N=          16
  0.00000000E+00  0.00000000E+00  0.00000000E+00  0.00000000E+00  0.00000000E+00
  0.00000000E+00  0.00000000E+00  0.00000000E+00  2.79284600E+00  2.79284600E+00
  2.79284600E+00  2.79284600E+00  2.79284600E+00  2.79284600E+00  2.79284600E+00
  2.79284600E+00
MicOpt                                     I   N=          16
          -1          -1          -1          -1          -1          -1
          -1          -1          -1          -1          -1          -1
          -1          -1          -1          -1
Number of contracted shells                I               88
Number of primitive shells                 I              160
Pure/Cartesian d shells                    I                0
Pure/Cartesian f shells                    I                0
Highest angular momentum                   I                2
Largest degree of contraction              I                6
Shell types                                I   N=          88
           0          -1          -1          -1          -1          -2
           0          -1          -1          -1          -1          -2
           0          -1          -1          -1          -1          -2
           0          -1          -1          -1          -1          -2
           0          -1          -1          -1          -1          -2
           0          -1          -1          -1          -1          -2
           0          -1          -1          -1          -1          -2
           0          -1          -1          -1          -1          -2
           0           0           0           0           1           0
           0           0           0           1           0           0
           0           0           1           0           0           0
           0           1           0           0           0           0
           1           0           0           0           0           1
           0           0           0           0           1           0
           0           0           0           1
Number of primitives per shell             I   N=          88
           6           3           1           1           1           1
           6           3           1           1           1           1
           6           3           1           1           1           1
           6           3           1           1           1           1
           6           3           1           1           1           1
           6           3           1           1           1           1
           6           3           1           1           1           1
           6           3           1           1           1           1
           3           1           1           1           1           3
           1           1           1           1           3           1
           1           1           1           3           1           1
           1           1           3           1           1           1
           1           3           1           1           1           1
           3           1           1           1           1           3
           1           1           1           1
Shell to atom map                          I   N=          88
           1           1           1           1           1           1
           2           2           2           2           2           2
           3           3           3           3           3           3
           4           4           4           4           4           4
           5           5           5           5           5           5
           6           6           6           6           6           6
           7           7           7           7           7           7
           8           8           8           8           8           8
           9           9           9           9           9          10
          10          10          10          10          11          11
          11          11          11          12          12          12
          12          12          13          13          13          13
          13          14          14          14          14          14
          15          15          15          15          15          16
          16          16          16          16
Primitive exponents                        R   N=         160
  4.56324000E+03  6.82024000E+02  1.54973000E+02  4.44553000E+01  1.30290000E+01
  1.82773000E+00  2.09642000E+01  4.80331000E+00  1.45933000E+00  4.83456000E-01
  1.45585000E-01  4.38000000E-02  6.26000000E-01  4.56324000E+03  6.82024000E+02
  1.54973000E+02  4.44553000E+01  1.30290000E+01  1.82773000E+00  2.09642000E+01
  4.80331000E+00  1.45933000E+00  4.83456000E-01  1.45585000E-01  4.38000000E-02
  6.26000000E-01  4.56324000E+03  6.82024000E+02  1.54973000E+02  4.44553000E+01
  1.30290000E+01  1.82773000E+00  2.09642000E+01  4.80331000E+00  1.45933000E+00
  4.83456000E-01  1.45585000E-01  4.38000000E-02  6.26000000E-01  4.56324000E+03
  6.82024000E+02  1.54973000E+02  4.44553000E+01  1.30290000E+01  1.82773000E+00
  2.09642000E+01  4.80331000E+00  1.45933000E+00  4.83456000E-01  1.45585000E-01
  4.38000000E-02  6.26000000E-01  4.56324000E+03  6.82024000E+02  1.54973000E+02
  4.44553000E+01  1.30290000E+01  1.82773000E+00  2.09642000E+01  4.80331000E+00
  1.45933000E+00  4.83456000E-01  1.45585000E-01  4.38000000E-02  6.26000000E-01
  4.56324000E+03  6.82024000E+02  1.54973000E+02  4.44553000E+01  1.30290000E+01
  1.82773000E+00  2.09642000E+01  4.80331000E+00  1.45933000E+00  4.83456000E-01
  1.45585000E-01  4.38000000E-02  6.26000000E-01  4.56324000E+03  6.82024000E+02
  1.54973000E+02  4.44553000E+01  1.30290000E+01  1.82773000E+00  2.09642000E+01
  4.80331000E+00  1.45933000E+00  4.83456000E-01  1.45585000E-01  4.38000000E-02
  6.26000000E-01  4.56324000E+03  6.82024000E+02  1.54973000E+02  4.44553000E+01
  1.30290000E+01  1.82773000E+00  2.09642000E+01  4.80331000E+00  1.45933000E+00
  4.83456000E-01  1.45585000E-01  4.38000000E-02  6.26000000E-01  3.38650000E+01
  5.09479000E+00  1.15879000E+00  3.25840000E-01  1.02741000E-01  3.60000000E-02
  7.50000000E-01  3.38650000E+01  5.09479000E+00  1.15879000E+00  3.25840000E-01
  1.02741000E-01  3.60000000E-02  7.50000000E-01  3.38650000E+01  5.09479000E+00
  1.15879000E+00  3.25840000E-01  1.02741000E-01  3.60000000E-02  7.50000000E-01
  3.38650000E+01  5.09479000E+00  1.15879000E+00  3.25840000E-01  1.02741000E-01
  3.60000000E-02  7.50000000E-01  3.38650000E+01  5.09479000E+00  1.15879000E+00
  3.25840000E-01  1.02741000E-01  3.60000000E-02  7.50000000E-01  3.38650000E+01
  5.09479000E+00  1.15879000E+00  3.25840000E-01  1.02741000E-01  3.60000000E-02
  7.50000000E-01  3.38650000E+01  5.09479000E+00  1.15879000E+00  3.25840000E-01
  1.02741000E-01  3.60000000E-02  7.50000000E-01  3.38650000E+01  5.09479000E+00
  1.15879000E+00  3.25840000E-01  1.02741000E-01  3.60000000E-02  7.50000000E-01
Contraction coefficients                   R   N=         160
  1.96665025E-03  1.52306019E-02  7.61269097E-02  2.60801033E-01  6.16462078E-01
  2.21006028E-01  1.14660081E-01  9.19999648E-01 -3.03068213E-03  1.00000000E+00
  1.00000000E+00  1.00000000E+00  1.00000000E+00  1.96665025E-03  1.52306019E-02
  7.61269097E-02  2.60801033E-01  6.16462078E-01  2.21006028E-01  1.14660081E-01
  9.19999648E-01 -3.03068213E-03  1.00000000E+00  1.00000000E+00  1.00000000E+00
  1.00000000E+00  1.96665025E-03  1.52306019E-02  7.61269097E-02  2.60801033E-01
  6.16462078E-01  2.21006028E-01  1.14660081E-01  9.19999648E-01 -3.03068213E-03
  1.00000000E+00  1.00000000E+00  1.00000000E+00  1.00000000E+00  1.96665025E-03
  1.52306019E-02  7.61269097E-02  2.60801033E-01  6.16462078E-01  2.21006028E-01
  1.14660081E-01  9.19999648E-01 -3.03068213E-03  1.00000000E+00  1.00000000E+00
  1.00000000E+00  1.00000000E+00  1.96665025E-03  1.52306019E-02  7.61269097E-02
  2.60801033E-01  6.16462078E-01  2.21006028E-01  1.14660081E-01  9.19999648E-01
 -3.03068213E-03  1.00000000E+00  1.00000000E+00  1.00000000E+00  1.00000000E+00
  1.96665025E-03  1.52306019E-02  7.61269097E-02  2.60801033E-01  6.16462078E-01
  2.21006028E-01  1.14660081E-01  9.19999648E-01 -3.03068213E-03  1.00000000E+00
  1.00000000E+00  1.00000000E+00  1.00000000E+00  1.96665025E-03  1.52306019E-02
  7.61269097E-02  2.60801033E-01  6.16462078E-01  2.21006028E-01  1.14660081E-01
  9.19999648E-01 -3.03068213E-03  1.00000000E+00  1.00000000E+00  1.00000000E+00
  1.00000000E+00  1.96665025E-03  1.52306019E-02  7.61269097E-02  2.60801033E-01
  6.16462078E-01  2.21006028E-01  1.14660081E-01  9.19999648E-01 -3.03068213E-03
  1.00000000E+00  1.00000000E+00  1.00000000E+00  1.00000000E+00  2.54938145E-02
  1.90373109E-01  8.52161486E-01  1.00000000E+00  1.00000000E+00  1.00000000E+00
  1.00000000E+00  2.54938145E-02  1.90373109E-01  8.52161486E-01  1.00000000E+00
  1.00000000E+00  1.00000000E+00  1.00000000E+00  2.54938145E-02  1.90373109E-01
  8.52161486E-01  1.00000000E+00  1.00000000E+00  1.00000000E+00  1.00000000E+00
  2.54938145E-02  1.90373109E-01  8.52161486E-01  1.00000000E+00  1.00000000E+00
  1.00000000E+00  1.00000000E+00  2.54938145E-02  1.90373109E-01  8.52161486E-01
  1.00000000E+00  1.00000000E+00  1.00000000E+00  1.00000000E+00  2.54938145E-02
  1.90373109E-01  8.52161486E-01  1.00000000E+00  1.00000000E+00  1.00000000E+00
  1.00000000E+00  2.54938145E-02  1.90373109E-01  8.52161486E-01  1.00000000E+00
  1.00000000E+00  1.00000000E+00  1.00000000E+00  2.54938145E-02  1.90373109E-01
  8.52161486E-01  1.00000000E+00  1.00000000E+00  1.00000000E+00  1.00000000E+00
P(S=P) Contraction coefficients            R   N=         160
  0.00000000E+00  0.00000000E+00  0.00000000E+00  0.00000000E+00  0.00000000E+00
  0.00000000E+00  4.02486927E-02  2.37593957E-01  8.15853851E-01  1.00000000E+00
  1.00000000E+00  1.00000000E+00  0.00000000E+00  0.00000000E+00  0.00000000E+00
  0.00000000E+00  0.00000000E+00  0.00000000E+00  0.00000000E+00  4.02486927E-02
  2.37593957E-01  8.15853851E-01  1.00000000E+00  1.00000000E+00  1.00000000E+00
  0.00000000E+00  0.00000000E+00  0.00000000E+00  0.00000000E+00  0.00000000E+00
  0.00000000E+00  0.00000000E+00  4.02486927E-02  2.37593957E-01  8.15853851E-01
  1.00000000E+00  1.00000000E+00  1.00000000E+00  0.00000000E+00  0.00000000E+00
  0.00000000E+00  0.00000000E+00  0.00000000E+00  0.00000000E+00  0.00000000E+00
  4.02486927E-02  2.37593957E-01  8.15853851E-01  1.00000000E+00  1.00000000E+00
  1.00000000E+00  0.00000000E+00  0.00000000E+00  0.00000000E+00  0.00000000E+00
  0.00000000E+00  0.00000000E+00  0.00000000E+00  4.02486927E-02  2.37593957E-01
  8.15853851E-01  1.00000000E+00  1.00000000E+00  1.00000000E+00  0.00000000E+00
  0.00000000E+00  0.00000000E+00  0.00000000E+00  0.00000000E+00  0.00000000E+00
  0.00000000E+00  4.02486927E-02  2.37593957E-01  8.15853851E-01  1.00000000E+00
  1.00000000E+00  1.00000000E+00  0.00000000E+00  0.00000000E+00  0.00000000E+00
  0.00000000E+00  0.00000000E+00  0.00000000E+00  0.00000000E+00  4.02486927E-02
  2.37593957E-01  8.15853851E-01  1.00000000E+00  1.00000000E+00  1.00000000E+00
  0.00000000E+00  0.00000000E+00  0.00000000E+00  0.00000000E+00  0.00000000E+00
  0.00000000E+00  0.00000000E+00  4.02486927E-02  2.37593957E-01  8.15853851E-01
  1.00000000E+00  1.00000000E+00  1.00000000E+00  0.00000000E+00  0.00000000E+00
  0.00000000E+00  0.00000000E+00  0.00000000E+00  0.00000000E+00  0.00000000E+00
  0.00000000E+00  0.00000000E+00  0.00000000E+00  0.00000000E+00  0.00000000E+00
  0.00000000E+00  0.00000000E+00  0.00000000E+00  0.00000000E+00  0.00000000E+00
  0.00000000E+00  0.00000000E+00  0.00000000E+00  0.00000000E+00  0.00000000E+00
  0.00000000E+00  0.00000000E+00  0.00000000E+00  0.00000000E+00  0.00000000E+00
  0.00000000E+00  0.00000000E+00  0.00000000E+00  0.00000000E+00  0.00000000E+00
  0.00000000E+00  0.00000000E+00  0.00000000E+00  0.00000000E+00  0.00000000E+00
  0.00000000E+00  0.00000000E+00  0.00000000E+00  0.00000000E+00  0.00000000E+00
  0.00000000E+00  0.00000000E+00  0.00000000E+00  0.00000000E+00  0.00000000E+00
  0.00000000E+00  0.00000000E+00  0.00000000E+00  0.00000000E+00  0.00000000E+00
  0.00000000E+00  0.00000000E+00  0.00000000E+00  0.00000000E+00  0.00000000E+00
Coordinates of each shell                  R   N=         264
  3.21199029E+00 -1.33043724E+00  0.00000000E+00  3.21199029E+00 -1.33043724E+00
  0.00000000E+00  3.21199029E+00 -1.33043724E+00  0.00000000E+00  3.21199029E+00
 -1.33043724E+00  0.00000000E+00  3.21199029E+00 -1.33043724E+00  0.00000000E+00
  3.21199029E+00 -1.33043724E+00  0.00000000E+00  3.21199029E+00  1.33045400E+00
  0.00000000E+00  3.21199029E+00  1.33045400E+00  0.00000000E+00  3.21199029E+00
  1.33045400E+00  0.00000000E+00  3.21199029E+00  1.33045400E+00  0.00000000E+00
  3.21199029E+00  1.33045400E+00  0.00000000E+00  3.21199029E+00  1.33045400E+00
  0.00000000E+00  1.33043376E+00  3.21199039E+00  0.00000000E+00  1.33043376E+00
  3.21199039E+00  0.00000000E+00  1.33043376E+00  3.21199039E+00  0.00000000E+00
  1.33043376E+00  3.21199039E+00  0.00000000E+00  1.33043376E+00  3.21199039E+00
  0.00000000E+00  1.33043376E+00  3.21199039E+00  0.00000000E+00 -1.33045559E+00
  3.21199228E+00  0.00000000E+00 -1.33045559E+00  3.21199228E+00  0.00000000E+00
 -1.33045559E+00  3.21199228E+00  0.00000000E+00 -1.33045559E+00  3.21199228E+00
  0.00000000E+00 -1.33045559E+00  3.21199228E+00  0.00000000E+00 -1.33045559E+00
  3.21199228E+00  0.00000000E+00 -3.21199197E+00  1.33043575E+00  0.00000000E+00
 -3.21199197E+00  1.33043575E+00  0.00000000E+00 -3.21199197E+00  1.33043575E+00
  0.00000000E+00 -3.21199197E+00  1.33043575E+00  0.00000000E+00 -3.21199197E+00
  1.33043575E+00  0.00000000E+00 -3.21199197E+00  1.33043575E+00  0.00000000E+00
 -3.21199197E+00 -1.33045360E+00  0.00000000E+00 -3.21199197E+00 -1.33045360E+00
  0.00000000E+00 -3.21199197E+00 -1.33045360E+00  0.00000000E+00 -3.21199197E+00
 -1.33045360E+00  0.00000000E+00 -3.21199197E+00 -1.33045360E+00  0.00000000E+00
 -3.21199197E+00 -1.33045360E+00  0.00000000E+00 -1.33043167E+00 -3.21198431E+00
  0.00000000E+00 -1.33043167E+00 -3.21198431E+00  0.00000000E+00 -1.33043167E+00
 -3.21198431E+00  0.00000000E+00 -1.33043167E+00 -3.21198431E+00  0.00000000E+00
 -1.33043167E+00 -3.21198431E+00  0.00000000E+00 -1.33043167E+00 -3.21198431E+00
  0.00000000E+00  1.33045957E+00 -3.21199754E+00  0.00000000E+00  1.33045957E+00
 -3.21199754E+00  0.00000000E+00  1.33045957E+00 -3.21199754E+00  0.00000000E+00
  1.33045957E+00 -3.21199754E+00  0.00000000E+00  1.33045957E+00 -3.21199754E+00
  0.00000000E+00  1.33045957E+00 -3.21199754E+00  0.00000000E+00  5.11249954E+00
 -2.11766718E+00  0.00000000E+00  5.11249954E+00 -2.11766718E+00  0.00000000E+00
  5.11249954E+00 -2.11766718E+00  0.00000000E+00  5.11249954E+00 -2.11766718E+00
  0.00000000E+00  5.11249954E+00 -2.11766718E+00  0.00000000E+00  5.11249696E+00
  2.11768718E+00  0.00000000E+00  5.11249696E+00  2.11768718E+00  0.00000000E+00
  5.11249696E+00  2.11768718E+00  0.00000000E+00  5.11249696E+00  2.11768718E+00
  0.00000000E+00  5.11249696E+00  2.11768718E+00  0.00000000E+00  2.11765426E+00
  5.11250531E+00  0.00000000E+00  2.11765426E+00  5.11250531E+00  0.00000000E+00
  2.11765426E+00  5.11250531E+00  0.00000000E+00  2.11765426E+00  5.11250531E+00
  0.00000000E+00  2.11765426E+00  5.11250531E+00  0.00000000E+00 -2.11770200E+00
  5.11249328E+00  0.00000000E+00 -2.11770200E+00  5.11249328E+00  0.00000000E+00
 -2.11770200E+00  5.11249328E+00  0.00000000E+00 -2.11770200E+00  5.11249328E+00
  0.00000000E+00 -2.11770200E+00  5.11249328E+00  0.00000000E+00 -5.11250312E+00
  2.11766381E+00  0.00000000E+00 -5.11250312E+00  2.11766381E+00  0.00000000E+00
 -5.11250312E+00  2.11766381E+00  0.00000000E+00 -5.11250312E+00  2.11766381E+00
  0.00000000E+00 -5.11250312E+00  2.11766381E+00  0.00000000E+00 -5.11249865E+00
 -2.11768489E+00  0.00000000E+00 -5.11249865E+00 -2.11768489E+00  0.00000000E+00
 -5.11249865E+00 -2.11768489E+00  0.00000000E+00 -5.11249865E+00 -2.11768489E+00
  0.00000000E+00 -5.11249865E+00 -2.11768489E+00  0.00000000E+00 -2.11765972E+00
 -5.11249546E+00  0.00000000E+00 -2.11765972E+00 -5.11249546E+00  0.00000000E+00
 -2.11765972E+00 -5.11249546E+00  0.00000000E+00 -2.11765972E+00 -5.11249546E+00
  0.00000000E+00 -2.11765972E+00 -5.11249546E+00  0.00000000E+00  2.11769653E+00
 -5.11250044E+00  0.00000000E+00  2.11769653E+00 -5.11250044E+00  0.00000000E+00
  2.11769653E+00 -5.11250044E+00  0.00000000E+00  2.11769653E+00 -5.11250044E+00
  0.00000000E+00  2.11769653E+00 -5.11250044E+00  0.00000000E+00
Constraint Structure                       R   N=          48
  3.21199029E+00 -1.33043724E+00  0.00000000E+00  3.21199029E+00  1.33045400E+00
  0.00000000E+00  1.33043376E+00  3.21199039E+00  0.00000000E+00 -1.33045559E+00
  3.21199228E+00  0.00000000E+00 -3.21199197E+00  1.33043575E+00  0.00000000E+00
 -3.21199197E+00 -1.33045360E+00  0.00000000E+00 -1.33043167E+00 -3.21198431E+00
  0.00000000E+00  1.33045957E+00 -3.21199754E+00  0.00000000E+00  5.11249954E+00
 -2.11766718E+00  0.00000000E+00  5.11249696E+00  2.11768718E+00  0.00000000E+00
  2.11765426E+00  5.11250531E+00  0.00000000E+00 -2.11770200E+00  5.11249328E+00
  0.00000000E+00 -5.11250312E+00  2.11766381E+00  0.00000000E+00 -5.11249865E+00
 -2.11768489E+00  0.00000000E+00 -2.11765972E+00 -5.11249546E+00  0.00000000E+00
  2.11769653E+00 -5.11250044E+00  0.00000000E+00
Num ILSW                                   I              100
ILSW                                       I   N=         100
           0           0           0           0           2           0
           0           0           0           0           0          -1
           0           0           0           0           0           0
           0           0           0           0           0           0
           1           0           0           0           0           0
           0           0      100000           0          -1           0
           0           0           0           0           0           0
           0           0           0           1           0           0
           0           0           1           0           0           0
           0           0           4          40           0           0
           0           0           0           0           0           0
           0           0           0           0           0           0
           0           0           0           0           0           0
           0           0           0           0           0           0
           0           0           0           0           0           0
           0           0           0           0           0           0
           0           0           0           0
Num RLSW                                   I               40
RLSW                                       R   N=          40
  1.00000000E+00  1.00000000E+00  1.00000000E+00  1.00000000E+00  1.00000000E+00
  0.00000000E+00  0.00000000E+00  1.00000000E+00  0.00000000E+00  0.00000000E+00
  0.00000000E+00  0.00000000E+00  1.00000000E+00  0.00000000E+00  0.00000000E+00
  0.00000000E+00  0.00000000E+00  1.00000000E+00  0.00000000E+00  0.00000000E+00
  0.00000000E+00  0.00000000E+00  1.00000000E+00  0.00000000E+00  0.00000000E+00
  0.00000000E+00  0.00000000E+00  1.00000000E+00  0.00000000E+00  0.00000000E+00
  0.00000000E+00  0.00000000E+00  0.00000000E+00  0.00000000E+00  0.00000000E+00
  0.00000000E+00  0.00000000E+00  0.00000000E+00  1.00000000E+00  1.00000000E+00
MxBond                                     I                3
NBond                                      I   N=          16
           3           3           3           3           3           3
           3           3           1           1           1           1
           1           1           1           1
IBond                                      I   N=          48
           2           8           9           1           3          10
           2           4          11           3           5          12
           4           6          13           5           7          14
           6           8          15           1           7          16
           1           0           0           2           0           0
           3           0           0           4           0           0
           5           0           0           6           0           0
           7           0           0           8           0           0
RBond                                      R   N=          48
  1.50000000E+00  1.50000000E+00  1.00000000E+00  1.50000000E+00  1.50000000E+00
  1.00000000E+00  1.50000000E+00  1.50000000E+00  1.00000000E+00  1.50000000E+00
  1.50000000E+00  1.00000000E+00  1.50000000E+00  1.50000000E+00  1.00000000E+00
  1.50000000E+00  1.50000000E+00  1.00000000E+00  1.50000000E+00  1.50000000E+00
  1.00000000E+00  1.50000000E+00  1.50000000E+00  1.00000000E+00  1.00000000E+00
  0.00000000E+00  0.00000000E+00  1.00000000E+00  0.00000000E+00  0.00000000E+00
  1.00000000E+00  0.00000000E+00  0.00000000E+00  1.00000000E+00  0.00000000E+00
  0.00000000E+00  1.00000000E+00  0.00000000E+00  0.00000000E+00  1.00000000E+00
  0.00000000E+00  0.00000000E+00  1.00000000E+00  0.00000000E+00  0.00000000E+00
  1.00000000E+00  0.00000000E+00  0.00000000E+00
Virial Ratio                               R      2.001275674855128E+00
SCF Energy                                 R     -3.068991803399749E+02
MP2 Energy                                 R     -3.079602953827978E+02
Total Energy                               R     -3.079602953827978E+02
Post-SCF wavefunction norm                 R      1.190405133729732E+00
RMS Density                                R      5.501203365733119E-09
External E-field                           R   N=          35
  0.00000000E+00  0.00000000E+00  0.00000000E+00  0.00000000E+00  0.00000000E+00
  0.00000000E+00  0.00000000E+00  0.00000000E+00  0.00000000E+00  0.00000000E+00
  0.00000000E+00  0.00000000E+00  0.00000000E+00  0.00000000E+00  0.00000000E+00
  0.00000000E+00  0.00000000E+00  0.00000000E+00  0.00000000E+00  0.00000000E+00
  0.00000000E+00  0.00000000E+00  0.00000000E+00  0.00000000E+00  0.00000000E+00
  0.00000000E+00  0.00000000E+00  0.00000000E+00  0.00000000E+00  0.00000000E+00
  0.00000000E+00  0.00000000E+00  0.00000000E+00  0.00000000E+00  0.00000000E+00
IOpCl                                      I                0
IROHF                                      I                0
Alpha Orbital Energies                     R   N=         230
 -1.16726454E+01 -1.16723325E+01 -1.16723324E+01 -1.16715394E+01 -1.16715387E+01
 -1.16707400E+01 -1.16707399E+01 -1.16704080E+01 -1.53321254E+00 -1.47331012E+00
 -1.47330984E+00 -1.34501732E+00 -1.34501377E+00 -1.19371964E+00 -1.19371922E+00
 -1.09685845E+00 -1.05812920E+00 -1.03183047E+00 -1.03183002E+00 -9.96113128E-01
 -9.13476063E-01 -9.13470347E-01 -8.94467602E-01 -8.94466410E-01 -8.62801636E-01
 -7.62071855E-01 -7.62071810E-01 -4.01927619E-01 -4.01923065E-01 -2.13650577E-01
 -1.81470445E-01 -1.81470371E-01 -1.63817616E-01 -1.63817573E-01 -1.55596760E-01
 -1.54381756E-01 -1.49175436E-01 -1.49175320E-01 -1.20804190E-01 -1.20804066E-01
 -1.19331806E-01 -1.19331764E-01 -9.39452163E-02 -9.39450828E-02 -8.59927095E-02
 -7.60958744E-02 -7.30226642E-02 -7.30224436E-02 -6.49471488E-02 -5.73440724E-02
 -5.73440482E-02 -3.66721658E-02 -3.66719911E-02 -3.59990787E-02 -3.59988547E-02
 -2.84779061E-02 -2.19102122E-02 -1.36867676E-02 -1.36867629E-02 -7.42983958E-03
 -7.42954696E-03  8.34264707E-03  8.34267101E-03  2.72725128E-02  2.72774421E-02
  3.11408515E-02  5.05318768E-02  6.75812405E-02  6.75812546E-02  7.88858087E-02
  7.88859260E-02  9.40510697E-02  9.40555954E-02  1.05864583E-01  1.05865265E-01
  1.22227939E-01  1.22228006E-01  1.51221218E-01  1.73546669E-01  1.73547471E-01
  2.08908385E-01  2.08908579E-01  2.40648079E-01  2.65337734E-01  2.65338287E-01
  2.74171420E-01  3.17990628E-01  3.28748481E-01  3.47974724E-01  3.81674073E-01
  3.81674252E-01  3.88544180E-01  3.88544279E-01  3.93329433E-01  3.93329757E-01
  4.04241693E-01  4.04244317E-01  4.43994630E-01  4.43995968E-01  4.98102751E-01
  4.98102771E-01  5.30436085E-01  5.58748040E-01  5.72356865E-01  5.72357350E-01
  5.72846104E-01  5.72906900E-01  5.72910325E-01  5.72918377E-01  5.85604084E-01
  5.85604760E-01  6.41976072E-01  6.50487192E-01  6.50487288E-01  7.40031251E-01
  7.40032449E-01  7.42430514E-01  7.42431093E-01  7.65770015E-01  7.65770338E-01
  7.89260711E-01  8.17670730E-01  8.20183159E-01  8.35447685E-01  8.35450906E-01
  8.55221618E-01  8.55221900E-01  9.24479248E-01  9.24481221E-01  9.52782875E-01
  9.52783984E-01  9.91484365E-01  9.91488170E-01  1.20025376E+00  1.20610584E+00
  1.28819981E+00  1.32360000E+00  1.32360012E+00  1.38959745E+00  1.38959874E+00