 Entering Gaussian System, Link 0=g09
 Initial command:
 /apps/software//g09/l1.exe /scratch/itamar/2717.cluster.abaxnet/Gau-29240.inp -scrdir=/scratch/itamar/2717.cluster.abaxnet/
 Entering Link 1 = /apps/software//g09/l1.exe PID=     29241.
  
 Copyright (c) 1988,1990,1992,1993,1995,1998,2003,2009, Gaussian, Inc.
                  All Rights Reserved.
  
 This is part of the Gaussian(R) 09 program.  It is based on
 the Gaussian(R) 03 system (copyright 2003, Gaussian, Inc.),
 the Gaussian(R) 98 system (copyright 1998, Gaussian, Inc.),
 the Gaussian(R) 94 system (copyright 1995, Gaussian, Inc.),
 the Gaussian 92(TM) system (copyright 1992, Gaussian, Inc.),
 the Gaussian 90(TM) system (copyright 1990, Gaussian, Inc.),
 the Gaussian 88(TM) system (copyright 1988, Gaussian, Inc.),
 the Gaussian 86(TM) system (copyright 1986, Carnegie Mellon
 University), and the Gaussian 82(TM) system (copyright 1983,
 Carnegie Mellon University). Gaussian is a federally registered
 trademark of Gaussian, Inc.
  
 This software contains proprietary and confidential information,
 including trade secrets, belonging to Gaussian, Inc.
  
 This software is provided under written license and may be
 used, copied, transmitted, or stored only in accord with that
 written license.
  
 The following legend is applicable only to US Government
 contracts under FAR:
  
                    RESTRICTED RIGHTS LEGEND
  
 Use, reproduction and disclosure by the US Government is
 subject to restrictions as set forth in subparagraphs (a)
 and (c) of the Commercial Computer Software - Restricted
 Rights clause in FAR 52.227-19.
  
 Gaussian, Inc.
 340 Quinnipiac St., Bldg. 40, Wallingford CT 06492
  
  
 ---------------------------------------------------------------
 Warning -- This program may not be used in any manner that
 competes with the business of Gaussian, Inc. or will provide
 assistance to any competitor of Gaussian, Inc.  The licensee
 of this program is prohibited from giving any competitor of
 Gaussian, Inc. access to this program.  By using this program,
 the user acknowledges that Gaussian, Inc. is engaged in the
 business of creating and licensing software in the field of
 computational chemistry and represents and warrants to the
 licensee that it is not a competitor of Gaussian, Inc. and that
 it will not use this program in any manner prohibited above.
 ---------------------------------------------------------------
  

 Cite this work as:
 Gaussian 09, Revision A.02,
 M. J. Frisch, G. W. Trucks, H. B. Schlegel, G. E. Scuseria, 
 M. A. Robb, J. R. Cheeseman, G. Scalmani, V. Barone, B. Mennucci, 
 G. A. Petersson, H. Nakatsuji, M. Caricato, X. Li, H. P. Hratchian, 
 A. F. Izmaylov, J. Bloino, G. Zheng, J. L. Sonnenberg, M. Hada, 
 M. Ehara, K. Toyota, R. Fukuda, J. Hasegawa, M. Ishida, T. Nakajima, 
 Y. Honda, O. Kitao, H. Nakai, T. Vreven, J. A. Montgomery, Jr., 
 J. E. Peralta, F. Ogliaro, M. Bearpark, J. J. Heyd, E. Brothers, 
 K. N. Kudin, V. N. Staroverov, R. Kobayashi, J. Normand, 
 K. Raghavachari, A. Rendell, J. C. Burant, S. S. Iyengar, J. Tomasi, 
 M. Cossi, N. Rega, J. M. Millam, M. Klene, J. E. Knox, J. B. Cross, 
 V. Bakken, C. Adamo, J. Jaramillo, R. Gomperts, R. E. Stratmann, 
 O. Yazyev, A. J. Austin, R. Cammi, C. Pomelli, J. W. Ochterski, 
 R. L. Martin, K. Morokuma, V. G. Zakrzewski, G. A. Voth, 
 P. Salvador, J. J. Dannenberg, S. Dapprich, A. D. Daniels, 
 O. Farkas, J. B. Foresman, J. V. Ortiz, J. Cioslowski, 
 and D. J. Fox, Gaussian, Inc., Wallingford CT, 2009.
 
 ******************************************
 Gaussian 09:  EM64L-G09RevA.02 11-Jun-2009
                 7-Dec-2021 
 ******************************************
 %Mem=3800MB
 %NProcShared=6
 Will use up to    6 processors via shared memory.
 %chk=/home/itamar/Aromaticity-test-set/T13-old-T14-Diels-Alder-TS/IRC2/da-ts.chk
 ------------------------------------------
 #P MP2/6-311++G** IRC=(CalcFC,MaxCycle=50)
 ------------------------------------------
 1/6=50,10=4,18=20,38=1,44=3/1,23;
 2/9=110,12=2,17=6,18=5,29=1,40=1/2;
 3/5=4,6=6,7=1111,11=9,16=1,25=1,30=1,71=2/1,2,3;
 4//1;
 5/5=2,38=5/2;
 8/6=3,8=1,10=2,19=11,30=-1/1;
 9/15=3,16=-3/6;
 11/6=1,8=1,15=11,17=12,24=-1,27=1,28=-2,29=300,32=6,42=3/1,2,10;
 10/6=2,21=1/2;
 8/6=4,8=1,10=2,19=11,30=-1/11,4;
 10/5=1,20=4/2;
 11/12=2,14=11,16=1,17=2,28=-2,42=3/2,10,12;
 6/7=2,8=2,9=2,10=2/1;
 7/10=1,12=2,25=1,44=2/1,2,3,16;
 1/6=50,10=4,18=20,44=3/23(3);
 2/9=110,29=1/2;
 7/9=1,25=1,44=-1/16;
 99//99;
 2/9=110,29=1/2;
 3/5=4,6=6,7=1111,11=9,16=1,25=1,30=1,71=2/1,2,3;
 4/5=5,16=3/1;
 5/5=2,38=5/2;
 8/6=3,8=1,10=2,19=11,30=-1/1;
 9/15=3,16=-3/6;
 11/6=1,8=1,15=11,17=12,24=-1,27=1,28=-2,29=300,32=6,42=3/1,2,10;
 10/6=2,21=1/2;
 8/6=4,8=1,10=2,19=11,30=-1/11,4;
 10/5=1,20=4/2;
 11/12=2,14=11,16=1,17=2,28=-2,42=3/2,10,12;
 7/10=1,12=2,25=1,44=2/1,2,3,16;
 1/6=50,18=20,44=3/23(-12);
 2/9=110,29=1/2;
 6/7=2,8=2,9=2,10=2/1;
 7/9=1,25=1,44=-1/16;
 99//99;
 Leave Link    1 at Tue Dec  7 15:35:14 2021, MaxMem=  498073600 cpu:       0.3
 (Enter /apps/software//g09/l101.exe)
 ----
 14-H
 ----
 Symbolic Z-matrix:
 Charge =  0 Multiplicity = 1
 6                    -0.42695   1.43299   0.49632 
 6                    -0.42716  -1.43313   0.49637 
 6                    -1.3238    0.70118  -0.26239 
 6                    -1.32384  -0.70115  -0.26235 
 6                     1.55644   0.69431  -0.25717 
 6                     1.55697  -0.69422  -0.25732 
 1                    -0.37464   2.50994   0.378 
 1                    -0.09441   1.06876   1.45899 
 1                    -0.375    -2.51011   0.37807 
 1                    -0.09425  -1.06888   1.4589 
 1                    -1.89163   1.2117   -1.0352 
 1                    -1.89176  -1.21159  -1.03515 
 1                     2.07828   1.23064   0.52664 
 1                     1.44404   1.23373  -1.18804 
 1                     2.07874  -1.23048   0.52653 
 1                     1.44451  -1.23368  -1.18814 
 
 NAtoms=     16 NQM=     16 NQMF=      0 NMic=      0 NMicF=      0 NTot=     16.
                    Isotopes and Nuclear Properties:
 (Nuclear quadrupole moments (NQMom) in fm**2, nuclear magnetic moments (NMagM)
  in nuclear magnetons)

  Atom         1           2           3           4           5           6           7           8           9          10
 IAtWgt=          12          12          12          12          12          12           1           1           1           1
 AtmWgt=  12.0000000  12.0000000  12.0000000  12.0000000  12.0000000  12.0000000   1.0078250   1.0078250   1.0078250   1.0078250
 NucSpn=           0           0           0           0           0           0           1           1           1           1
 AtZEff=   0.0000000   0.0000000   0.0000000   0.0000000   0.0000000   0.0000000   0.0000000   0.0000000   0.0000000   0.0000000
 NQMom=    0.0000000   0.0000000   0.0000000   0.0000000   0.0000000   0.0000000   0.0000000   0.0000000   0.0000000   0.0000000
 NMagM=    0.0000000   0.0000000   0.0000000   0.0000000   0.0000000   0.0000000   2.7928460   2.7928460   2.7928460   2.7928460

  Atom        11          12          13          14          15          16
 IAtWgt=           1           1           1           1           1           1
 AtmWgt=   1.0078250   1.0078250   1.0078250   1.0078250   1.0078250   1.0078250
 NucSpn=           1           1           1           1           1           1
 AtZEff=   0.0000000   0.0000000   0.0000000   0.0000000   0.0000000   0.0000000
 NQMom=    0.0000000   0.0000000   0.0000000   0.0000000   0.0000000   0.0000000
 NMagM=    2.7928460   2.7928460   2.7928460   2.7928460   2.7928460   2.7928460
 Leave Link  101 at Tue Dec  7 15:35:14 2021, MaxMem=  498073600 cpu:       0.3
 (Enter /apps/software//g09/l123.exe)
 IRC-IRC-IRC-IRC-IRC-IRC-IRC-IRC-IRC-IRC-IRC-IRC-IRC-IRC-IRC-IRC-IRC-IRC
 ------------------------------------------------------------------------
 INPUT DATA FOR L123
 ------------------------------------------------------------------------
 GENERAL PARAMETERS:
 Follow reaction path in both directions.
 Maximum points per path      =  10
 Step size                    =   0.100 bohr
 Integration scheme           = HPC                                 
    Redo corrector integration= Yes                                 
    Max correction cycles     =  50
 Initial Hessian              = CalcFC
 Hessian eveluation           = All updating
    Hessian updating method   = Bofill                              
 ------------------------------------------------------------------------
 IRC-IRC-IRC-IRC-IRC-IRC-IRC-IRC-IRC-IRC-IRC-IRC-IRC-IRC-IRC-IRC-IRC-IRC
 Leave Link  123 at Tue Dec  7 15:35:14 2021, MaxMem=  498073600 cpu:       0.0
 (Enter /apps/software//g09/l202.exe)
                          Input orientation:                          
 ---------------------------------------------------------------------
 Center     Atomic      Atomic             Coordinates (Angstroms)
 Number     Number       Type             X           Y           Z
 ---------------------------------------------------------------------
      1          6           0       -0.426946    1.432986    0.496319
      2          6           0       -0.427164   -1.433129    0.496368
      3          6           0       -1.323801    0.701175   -0.262393
      4          6           0       -1.323835   -0.701151   -0.262354
      5          6           0        1.556444    0.694313   -0.257168
      6          6           0        1.556966   -0.694220   -0.257321
      7          1           0       -0.374636    2.509940    0.377999
      8          1           0       -0.094413    1.068759    1.458987
      9          1           0       -0.374996   -2.510113    0.378071
     10          1           0       -0.094247   -1.068877    1.458896
     11          1           0       -1.891630    1.211696   -1.035200
     12          1           0       -1.891764   -1.211594   -1.035148
     13          1           0        2.078276    1.230638    0.526642
     14          1           0        1.444038    1.233732   -1.188035
     15          1           0        2.078743   -1.230482    0.526531
     16          1           0        1.444506   -1.233676   -1.188135
 ---------------------------------------------------------------------
                    Distance matrix (angstroms):
                    1          2          3          4          5
     1  C    0.000000
     2  C    2.866115   0.000000
     3  C    1.384030   2.436171   0.000000
     4  C    2.436090   1.384005   1.402326   0.000000
     5  C    2.246601   3.004751   2.880258   3.200524   0.000000
     6  C    3.004810   2.247400   3.200933   2.880814   1.388533
     7  H    1.084696   3.945195   2.140712   3.409125   2.725621
     8  H    1.081651   2.701259   2.147012   2.758093   2.410545
     9  H    3.945214   1.084717   3.409222   2.140744   3.795041
    10  H    2.701215   1.081653   2.758210   2.147047   2.962853
    11  H    2.130685   3.389021   1.086413   2.139782   3.572427
    12  H    3.388936   2.130651   2.139724   1.086419   4.015952
    13  H    2.513563   3.657021   3.532285   3.991075   1.083656
    14  H    2.525338   3.667528   2.966709   3.501682   1.081721
    15  H    3.656973   2.514268   3.991366   3.532714   2.142852
    16  H    3.667534   2.525961   3.502024   2.967215   2.143915
                    6          7          8          9         10
     6  C    0.000000
     7  H    3.794912   0.000000
     8  H    2.963252   1.823201   0.000000
     9  H    2.726475   5.020053   3.749057   0.000000
    10  H    2.410866   3.748985   2.137636   1.823229   0.000000
    11  H    4.016270   2.446189   3.077562   4.260208   3.827808
    12  H    3.573014   4.260103   3.827687   2.446206   3.077611
    13  H    2.142765   2.770467   2.369821   4.475917   3.297988
    14  H    2.143824   2.718225   3.066068   4.447241   3.830740
    15  H    1.083629   4.475700   3.298271   2.771341   2.370086
    16  H    1.081700   4.447102   3.831023   2.718985   3.066218
                   11         12         13         14         15
    11  H    0.000000
    12  H    2.423290   0.000000
    13  H    4.266130   4.915781   0.000000
    14  H    3.339240   4.138909   1.828219   0.000000
    15  H    4.916004   4.266629   2.461120   3.068377   0.000000
    16  H    4.139207   3.339849   3.068382   2.467408   1.828208
                   16
    16  H    0.000000
 Symmetry turned off by external request.
 Stoichiometry    C6H10
 Framework group  C1[X(C6H10)]
 Deg. of freedom    42
 Full point group                 C1      NOp   1
 Rotational constants (GHZ):      4.3619574      3.5034349      2.2778813
 Leave Link  202 at Tue Dec  7 15:35:14 2021, MaxMem=  498073600 cpu:       0.0
 (Enter /apps/software//g09/l301.exe)
 Standard basis: 6-311++G(d,p) (5D, 7F)
 Ernie: Thresh=  0.10000D-02 Tol=  0.10000D-05 Strict=F.
 Integral buffers will be    131072 words long.
 Raffenetti 1 integral format.
 Two-electron integral symmetry is turned off.
   202 basis functions,   306 primitive gaussians,   208 cartesian basis functions
    23 alpha electrons       23 beta electrons
       nuclear repulsion energy       224.7329007378 Hartrees.
 IExCor=    0 DFT=F Ex=HF Corr=None ExCW=0 ScaHFX=  1.000000
 ScaDFX=  1.000000  1.000000  1.000000  1.000000 ScalE2=  1.000000  1.000000
 IRadAn=      0 IRanWt=     -1 IRanGd=            0 ICorTp=0
 NAtoms=   16 NActive=   16 NUniq=   16 SFac= 7.50D-01 NAtFMM=   80 NAOKFM=F Big=F
 Leave Link  301 at Tue Dec  7 15:35:14 2021, MaxMem=  498073600 cpu:       0.2
 (Enter /apps/software//g09/l302.exe)
 NPDir=0 NMtPBC=     1 NCelOv=     1 NCel=       1 NClECP=     1 NCelD=      1
         NCelK=      1 NCelE2=     1 NClLst=     1 CellRange=     0.0.
 One-electron integrals computed using PRISM.
 NBasis=   202 RedAO= T  NBF=   202
 NBsUse=   202 1.00D-06 NBFU=   202
 Leave Link  302 at Tue Dec  7 15:35:15 2021, MaxMem=  498073600 cpu:       1.8
 (Enter /apps/software//g09/l303.exe)
 DipDrv:  MaxL=1.
 Leave Link  303 at Tue Dec  7 15:35:15 2021, MaxMem=  498073600 cpu:       0.2
 (Enter /apps/software//g09/l401.exe)
 Harris functional with IExCor=  205 diagonalized for initial guess.
 ExpMin= 3.60D-02 ExpMax= 4.56D+03 ExpMxC= 6.82D+02 IAcc=3 IRadAn=         0 AccDes= 0.00D+00
 HarFok:  IExCor=  205 AccDes= 0.00D+00 IRadAn=         0 IDoV= 1
 ScaDFX=  1.000000  1.000000  1.000000  1.000000
 FoFCou: FMM=F IPFlag=           0 FMFlag=      100000 FMFlg1=           0
         NFxFlg=           0 DoJE=T BraDBF=F KetDBF=T FulRan=T
         Omega=  0.000000  0.000000  1.000000  0.000000  0.000000 ICntrl=     500 IOpCl=  0
         NMat0=    1 NMatS0=    1 NMatT0=    0 NMatD0=    1 NMtDS0=    0 NMtDT0=    0
         I1Cent=           4 NGrid=           0.
 Symmetry not used in FoFCou.
 Harris En= -233.516436598941    
 Leave Link  401 at Tue Dec  7 15:35:16 2021, MaxMem=  498073600 cpu:       5.9
 (Enter /apps/software//g09/l502.exe)
 Closed shell SCF:
 Requested convergence on RMS density matrix=1.00D-08 within 128 cycles.
 Requested convergence on MAX density matrix=1.00D-06.
 Requested convergence on             energy=1.00D-06.
 No special actions if energy rises.
 Using DIIS extrapolation, IDIIS=  1040.
 Two-electron integral symmetry not used.
 Keep R1 ints in memory in canonical form, NReq=240952756.
 IEnd=      150466 IEndB=      150466 NGot=   498073600 MDV=   261745503
 LenX=   261745503 LenY=   261701798
 Symmetry not used in FoFDir.
 MinBra= 0 MaxBra= 2 Meth= 1.
 IRaf=       0 NMat=   1 IRICut=       1 DoRegI=T DoRafI=F ISym2E= 0 JSym2E=0.

 Cycle   1  Pass 1  IDiag  1:
 E= -232.578819778523    
 DIIS: error= 4.53D-02 at cycle   1 NSaved=   1.
 NSaved= 1 IEnMin= 1 EnMin= -232.578819778523     IErMin= 1 ErrMin= 4.53D-02
 ErrMax= 4.53D-02 EMaxC= 1.00D-01 BMatC= 5.74D-01 BMatP= 5.74D-01
 IDIUse=3 WtCom= 5.47D-01 WtEn= 4.53D-01
 Coeff-Com:  0.100D+01
 Coeff-En:   0.100D+01
 Coeff:      0.100D+01
 Gap=     0.435 Goal=   None    Shift=    0.000
 GapD=    0.435 DampG=2.000 DampE=0.500 DampFc=1.0000 IDamp=-1.
 RMSDP=8.83D-03 MaxDP=3.31D-01              OVMax= 1.74D-01

 Cycle   2  Pass 1  IDiag  1:
 E= -232.875773854431     Delta-E=       -0.296954075908 Rises=F Damp=F
 DIIS: error= 2.22D-02 at cycle   2 NSaved=   2.
 NSaved= 2 IEnMin= 2 EnMin= -232.875773854431     IErMin= 2 ErrMin= 2.22D-02
 ErrMax= 2.22D-02 EMaxC= 1.00D-01 BMatC= 6.54D-02 BMatP= 5.74D-01
 IDIUse=3 WtCom= 7.78D-01 WtEn= 2.22D-01
 Coeff-Com:  0.186D+00 0.814D+00
 Coeff-En:   0.000D+00 0.100D+01
 Coeff:      0.145D+00 0.855D+00
 Gap=     0.389 Goal=   None    Shift=    0.000
 RMSDP=5.98D-03 MaxDP=2.07D-01 DE=-2.97D-01 OVMax= 7.29D-02

 Cycle   3  Pass 1  IDiag  1:
 E= -232.934685167033     Delta-E=       -0.058911312602 Rises=F Damp=F
 DIIS: error= 5.40D-03 at cycle   3 NSaved=   3.
 NSaved= 3 IEnMin= 3 EnMin= -232.934685167033     IErMin= 3 ErrMin= 5.40D-03
 ErrMax= 5.40D-03 EMaxC= 1.00D-01 BMatC= 6.06D-03 BMatP= 6.54D-02
 IDIUse=3 WtCom= 9.46D-01 WtEn= 5.40D-02
 Coeff-Com: -0.185D-01 0.203D+00 0.815D+00
 Coeff-En:   0.000D+00 0.000D+00 0.100D+01
 Coeff:     -0.175D-01 0.193D+00 0.825D+00
 Gap=     0.350 Goal=   None    Shift=    0.000
 RMSDP=1.02D-03 MaxDP=3.05D-02 DE=-5.89D-02 OVMax= 1.70D-02

 Cycle   4  Pass 1  IDiag  1:
 E= -232.940805564972     Delta-E=       -0.006120397939 Rises=F Damp=F
 DIIS: error= 7.57D-04 at cycle   4 NSaved=   4.
 NSaved= 4 IEnMin= 4 EnMin= -232.940805564972     IErMin= 4 ErrMin= 7.57D-04
 ErrMax= 7.57D-04 EMaxC= 1.00D-01 BMatC= 6.31D-05 BMatP= 6.06D-03
 IDIUse=3 WtCom= 9.92D-01 WtEn= 7.57D-03
 Coeff-Com: -0.394D-02-0.146D-02 0.600D-01 0.945D+00
 Coeff-En:   0.000D+00 0.000D+00 0.000D+00 0.100D+01
 Coeff:     -0.391D-02-0.145D-02 0.595D-01 0.946D+00
 Gap=     0.349 Goal=   None    Shift=    0.000
 RMSDP=2.25D-04 MaxDP=7.30D-03 DE=-6.12D-03 OVMax= 4.11D-03

 Cycle   5  Pass 1  IDiag  1:
 E= -232.940925145608     Delta-E=       -0.000119580636 Rises=F Damp=F
 DIIS: error= 3.75D-04 at cycle   5 NSaved=   5.
 NSaved= 5 IEnMin= 5 EnMin= -232.940925145608     IErMin= 5 ErrMin= 3.75D-04
 ErrMax= 3.75D-04 EMaxC= 1.00D-01 BMatC= 6.91D-06 BMatP= 6.31D-05
 IDIUse=3 WtCom= 9.96D-01 WtEn= 3.75D-03
 Coeff-Com:  0.160D-02-0.130D-01-0.625D-01-0.131D+00 0.121D+01
 Coeff-En:   0.000D+00 0.000D+00 0.000D+00 0.000D+00 0.100D+01
 Coeff:      0.159D-02-0.129D-01-0.623D-01-0.131D+00 0.120D+01
 Gap=     0.349 Goal=   None    Shift=    0.000
 RMSDP=1.01D-04 MaxDP=3.19D-03 DE=-1.20D-04 OVMax= 3.16D-03

 Cycle   6  Pass 1  IDiag  1:
 E= -232.940954177321     Delta-E=       -0.000029031713 Rises=F Damp=F
 DIIS: error= 1.69D-04 at cycle   6 NSaved=   6.
 NSaved= 6 IEnMin= 6 EnMin= -232.940954177321     IErMin= 6 ErrMin= 1.69D-04
 ErrMax= 1.69D-04 EMaxC= 1.00D-01 BMatC= 1.15D-06 BMatP= 6.91D-06
 IDIUse=3 WtCom= 9.98D-01 WtEn= 1.69D-03
 Coeff-Com:  0.351D-03-0.741D-03-0.772D-02-0.719D-01 0.615D-01 0.102D+01
 Coeff-En:   0.000D+00 0.000D+00 0.000D+00 0.000D+00 0.000D+00 0.100D+01
 Coeff:      0.351D-03-0.739D-03-0.771D-02-0.718D-01 0.614D-01 0.102D+01
 Gap=     0.349 Goal=   None    Shift=    0.000
 RMSDP=3.43D-05 MaxDP=9.52D-04 DE=-2.90D-05 OVMax= 1.78D-03

 Cycle   7  Pass 1  IDiag  1:
 E= -232.940960334935     Delta-E=       -0.000006157615 Rises=F Damp=F
 DIIS: error= 1.21D-04 at cycle   7 NSaved=   7.
 NSaved= 7 IEnMin= 7 EnMin= -232.940960334935     IErMin= 7 ErrMin= 1.21D-04
 ErrMax= 1.21D-04 EMaxC= 1.00D-01 BMatC= 3.99D-07 BMatP= 1.15D-06
 IDIUse=3 WtCom= 9.99D-01 WtEn= 1.21D-03
 Coeff-Com: -0.445D-03 0.400D-02 0.180D-01 0.302D-01-0.338D+00 0.274D-01
 Coeff-Com:  0.126D+01
 Coeff-En:   0.000D+00 0.000D+00 0.000D+00 0.000D+00 0.000D+00 0.000D+00
 Coeff-En:   0.100D+01
 Coeff:     -0.444D-03 0.400D-02 0.180D-01 0.302D-01-0.338D+00 0.274D-01
 Coeff:      0.126D+01
 Gap=     0.349 Goal=   None    Shift=    0.000
 RMSDP=2.75D-05 MaxDP=8.22D-04 DE=-6.16D-06 OVMax= 1.40D-03

 Cycle   8  Pass 1  IDiag  1:
 E= -232.940963209394     Delta-E=       -0.000002874459 Rises=F Damp=F
 DIIS: error= 4.18D-05 at cycle   8 NSaved=   8.
 NSaved= 8 IEnMin= 8 EnMin= -232.940963209394     IErMin= 8 ErrMin= 4.18D-05
 ErrMax= 4.18D-05 EMaxC= 1.00D-01 BMatC= 6.07D-08 BMatP= 3.99D-07
 IDIUse=1 WtCom= 1.00D+00 WtEn= 0.00D+00
 Coeff-Com: -0.106D-03 0.477D-03 0.244D-02 0.160D-01-0.137D-01-0.249D+00
 Coeff-Com: -0.682D-02 0.125D+01
 Coeff:     -0.106D-03 0.477D-03 0.244D-02 0.160D-01-0.137D-01-0.249D+00
 Coeff:     -0.682D-02 0.125D+01
 Gap=     0.349 Goal=   None    Shift=    0.000
 RMSDP=1.19D-05 MaxDP=2.72D-04 DE=-2.87D-06 OVMax= 7.98D-04

 Cycle   9  Pass 1  IDiag  1:
 E= -232.940963717459     Delta-E=       -0.000000508065 Rises=F Damp=F
 DIIS: error= 8.56D-06 at cycle   9 NSaved=   9.
 NSaved= 9 IEnMin= 9 EnMin= -232.940963717459     IErMin= 9 ErrMin= 8.56D-06
 ErrMax= 8.56D-06 EMaxC= 1.00D-01 BMatC= 6.90D-09 BMatP= 6.07D-08
 IDIUse=1 WtCom= 1.00D+00 WtEn= 0.00D+00
 Coeff-Com:  0.324D-04-0.348D-03-0.166D-02-0.218D-02 0.403D-01-0.413D-01
 Coeff-Com: -0.156D+00 0.220D+00 0.942D+00
 Coeff:      0.324D-04-0.348D-03-0.166D-02-0.218D-02 0.403D-01-0.413D-01
 Coeff:     -0.156D+00 0.220D+00 0.942D+00
 Gap=     0.349 Goal=   None    Shift=    0.000
 RMSDP=2.18D-06 MaxDP=5.62D-05 DE=-5.08D-07 OVMax= 1.34D-04

 Cycle  10  Pass 1  IDiag  1:
 E= -232.940963744491     Delta-E=       -0.000000027032 Rises=F Damp=F
 DIIS: error= 2.99D-06 at cycle  10 NSaved=  10.
 NSaved=10 IEnMin=10 EnMin= -232.940963744491     IErMin=10 ErrMin= 2.99D-06
 ErrMax= 2.99D-06 EMaxC= 1.00D-01 BMatC= 7.25D-10 BMatP= 6.90D-09
 IDIUse=1 WtCom= 1.00D+00 WtEn= 0.00D+00
 Coeff-Com:  0.189D-04-0.113D-03-0.548D-03-0.297D-02 0.761D-02 0.292D-01
 Coeff-Com: -0.238D-01-0.139D+00 0.811D-01 0.105D+01
 Coeff:      0.189D-04-0.113D-03-0.548D-03-0.297D-02 0.761D-02 0.292D-01
 Coeff:     -0.238D-01-0.139D+00 0.811D-01 0.105D+01
 Gap=     0.349 Goal=   None    Shift=    0.000
 RMSDP=7.09D-07 MaxDP=1.09D-05 DE=-2.70D-08 OVMax= 4.98D-05

 Cycle  11  Pass 1  IDiag  1:
 E= -232.940963747553     Delta-E=       -0.000000003061 Rises=F Damp=F
 DIIS: error= 7.74D-07 at cycle  11 NSaved=  11.
 NSaved=11 IEnMin=11 EnMin= -232.940963747553     IErMin=11 ErrMin= 7.74D-07
 ErrMax= 7.74D-07 EMaxC= 1.00D-01 BMatC= 6.96D-11 BMatP= 7.25D-10
 IDIUse=1 WtCom= 1.00D+00 WtEn= 0.00D+00
 Coeff-Com: -0.448D-05 0.457D-04 0.226D-03 0.405D-03-0.477D-02 0.194D-02
 Coeff-Com:  0.189D-01-0.856D-02-0.131D+00-0.505D-01 0.117D+01
 Coeff:     -0.448D-05 0.457D-04 0.226D-03 0.405D-03-0.477D-02 0.194D-02
 Coeff:      0.189D-01-0.856D-02-0.131D+00-0.505D-01 0.117D+01
 Gap=     0.349 Goal=   None    Shift=    0.000
 RMSDP=1.97D-07 MaxDP=3.86D-06 DE=-3.06D-09 OVMax= 8.64D-06

 Cycle  12  Pass 1  IDiag  1:
 E= -232.940963747777     Delta-E=       -0.000000000225 Rises=F Damp=F
 DIIS: error= 1.94D-07 at cycle  12 NSaved=  12.
 NSaved=12 IEnMin=12 EnMin= -232.940963747777     IErMin=12 ErrMin= 1.94D-07
 ErrMax= 1.94D-07 EMaxC= 1.00D-01 BMatC= 3.53D-12 BMatP= 6.96D-11
 IDIUse=1 WtCom= 1.00D+00 WtEn= 0.00D+00
 Coeff-Com: -0.817D-06 0.342D-05 0.134D-04 0.147D-03-0.505D-04-0.194D-02
 Coeff-Com: -0.288D-03 0.994D-02 0.166D-02-0.416D-01-0.139D+00 0.117D+01
 Coeff:     -0.817D-06 0.342D-05 0.134D-04 0.147D-03-0.505D-04-0.194D-02
 Coeff:     -0.288D-03 0.994D-02 0.166D-02-0.416D-01-0.139D+00 0.117D+01
 Gap=     0.349 Goal=   None    Shift=    0.000
 RMSDP=6.07D-08 MaxDP=2.96D-06 DE=-2.25D-10 OVMax= 1.39D-06

 Cycle  13  Pass 1  IDiag  1:
 E= -232.940963747791     Delta-E=       -0.000000000014 Rises=F Damp=F
 DIIS: error= 4.46D-08 at cycle  13 NSaved=  13.
 NSaved=13 IEnMin=13 EnMin= -232.940963747791     IErMin=13 ErrMin= 4.46D-08
 ErrMax= 4.46D-08 EMaxC= 1.00D-01 BMatC= 2.91D-13 BMatP= 3.53D-12
 IDIUse=1 WtCom= 1.00D+00 WtEn= 0.00D+00
 Coeff-Com:  0.370D-06-0.377D-05-0.184D-04-0.431D-04 0.362D-03 0.536D-04
 Coeff-Com: -0.148D-02-0.352D-03 0.942D-02 0.121D-01-0.957D-01-0.966D-01
 Coeff-Com:  0.117D+01
 Coeff:      0.370D-06-0.377D-05-0.184D-04-0.431D-04 0.362D-03 0.536D-04
 Coeff:     -0.148D-02-0.352D-03 0.942D-02 0.121D-01-0.957D-01-0.966D-01
 Coeff:      0.117D+01
 Gap=     0.349 Goal=   None    Shift=    0.000
 RMSDP=2.17D-08 MaxDP=7.50D-07 DE=-1.35D-11 OVMax= 4.00D-07

 Cycle  14  Pass 1  IDiag  1:
 E= -232.940963747791     Delta-E=        0.000000000000 Rises=F Damp=F
 DIIS: error= 7.34D-09 at cycle  14 NSaved=  14.
 NSaved=14 IEnMin=14 EnMin= -232.940963747791     IErMin=14 ErrMin= 7.34D-09
 ErrMax= 7.34D-09 EMaxC= 1.00D-01 BMatC= 1.45D-14 BMatP= 2.91D-13
 IDIUse=1 WtCom= 1.00D+00 WtEn= 0.00D+00
 Coeff-Com: -0.559D-08 0.283D-06 0.185D-05-0.117D-05-0.519D-04 0.108D-03
 Coeff-Com:  0.218D-03-0.493D-03-0.154D-02 0.175D-02 0.186D-01-0.495D-01
 Coeff-Com: -0.148D+00 0.118D+01
 Coeff:     -0.559D-08 0.283D-06 0.185D-05-0.117D-05-0.519D-04 0.108D-03
 Coeff:      0.218D-03-0.493D-03-0.154D-02 0.175D-02 0.186D-01-0.495D-01
 Coeff:     -0.148D+00 0.118D+01
 Gap=     0.349 Goal=   None    Shift=    0.000
 RMSDP=5.46D-09 MaxDP=1.69D-07 DE=-3.41D-13 OVMax= 1.03D-07

 SCF Done:  E(RHF) =  -232.940963748     A.U. after   14 cycles
             Convg  =    0.5463D-08             -V/T =  2.0013
 KE= 2.326291460116D+02 PE=-9.910135135868D+02 EE= 3.007105030896D+02
 Leave Link  502 at Tue Dec  7 15:35:27 2021, MaxMem=  498073600 cpu:      67.8
 (Enter /apps/software//g09/l801.exe)
 ExpMin= 3.60D-02 ExpMax= 4.56D+03 ExpMxC= 6.82D+02 IAcc=3 IRadAn=         5 AccDes= 0.00D+00
 HarFok:  IExCor=  205 AccDes= 0.00D+00 IRadAn=         5 IDoV=-2
 ScaDFX=  1.000000  1.000000  1.000000  1.000000
 Largest valence mixing into a core orbital is  1.47D-04
 Largest core mixing into a valence orbital is  4.05D-05
 Range of M.O.s used for correlation:     7   202
 NBasis=   202 NAE=    23 NBE=    23 NFC=     6 NFV=     0
 NROrb=    196 NOA=    17 NOB=    17 NVA=   179 NVB=   179

 **** Warning!!: The largest alpha MO coefficient is  0.99839692D+02

 Leave Link  801 at Tue Dec  7 15:35:27 2021, MaxMem=  498073600 cpu:       1.5
 (Enter /apps/software//g09/l906.exe)
 Frozen-core derivative calculation, NFC=   6 NFV=   0.
 FulOut=F Deriv=T AODrv=T NAtomX=    16
   MMem=           0  MDisk=          17 MDiskD=          17
  W3Min=      966368 MinDsk=     3494376 NBas6D=         208
 NBas2D=       22000    NTT=       21736    LW2=     3000000
    MDV=   497554297 MDiskM=       33089 NBas2p=       21997
 Disk-based method using ON**2 memory for 17 occupieds at a time.
 Permanent disk used for amplitudes=    20980232 words.
 Estimated scratch disk usage=   299077662 words.
 IMap=   1   2   3   4   5   6   7   8   9  10  11  12  13  14  15  16  17  18  19  20
 IMap=  21  22  23
 Actual    scratch disk usage=   268556318 words.
 JobTyp=1 Pass  1:  I=   7 to  23 NPSUse=  6 ParTrn=T ParDer=T DoDerP=T.
 (rs|ai) integrals will be sorted in core.
 Spin components of T(2) and E(2):
     alpha-alpha T2 =       0.4546035632D-01 E2=     -0.1120155996D+00
     alpha-beta  T2 =       0.2544789518D+00 E2=     -0.6844569887D+00
     beta-beta   T2 =       0.4546035632D-01 E2=     -0.1120155996D+00
 The integrals were generated   1 times.
 ANorm=    0.1159913645D+01
 E2 =    -0.9084881880D+00 EUMP2 =    -0.23384945193576D+03
 Leave Link  906 at Tue Dec  7 15:44:34 2021, MaxMem=  498073600 cpu:    3273.2
 (Enter /apps/software//g09/l1101.exe)
 Using compressed Sx but separate Hx and Fx, NAtomX=    16.
 Will process  17 centers per pass.
 Leave Link 1101 at Tue Dec  7 15:44:34 2021, MaxMem=  498073600 cpu:       2.3
 (Enter /apps/software//g09/l1102.exe)
 Leave Link 1102 at Tue Dec  7 15:44:34 2021, MaxMem=  498073600 cpu:       0.1
 (Enter /apps/software//g09/l1110.exe)
 Forming Gx(P) for the SCF density, NAtomX=    16.
 Integral derivatives from FoFDir/FoFCou, PRISM(SPDF).
 Do as many integral derivatives as possible in FoFDir.
 G2DrvN: MDV=     498073368.
 G2DrvN: will do    17 centers at a time, making    1 passes doing MaxLOS=2.
 Calling FoFCou, ICntrl=  3107 FMM=F I1Cent=   0 AccDes= 0.00D+00.
 FoFCou: FMM=F IPFlag=           0 FMFlag=      100000 FMFlg1=           0
         NFxFlg=           0 DoJE=F BraDBF=F KetDBF=F FulRan=T
         Omega=  0.000000  0.000000  1.000000  0.000000  0.000000 ICntrl=    3107 IOpCl=  0
         NMat0=    1 NMatS0=    1 NMatT0=    0 NMatD0=    1 NMtDS0=    0 NMtDT0=    0
         I1Cent=           0 NGrid=           0.
 Symmetry not used in FoFCou.
 FoFDir/FoFCou used for L=0 through L=2.
 End of G2Drv Frequency-dependent properties file   721 does not exist.
 End of G2Drv Frequency-dependent properties file   722 does not exist.
 Leave Link 1110 at Tue Dec  7 15:44:52 2021, MaxMem=  498073600 cpu:     110.4
 (Enter /apps/software//g09/l1002.exe)
 Minotr:  Closed shell wavefunction.
          IDoAtm=1111111111111111
          Frozen-core window.
          Direct CPHF calculation.
          Differentiating once with respect to electric field.
                with respect to dipole field.
          Differentiating once with respect to nuclear coordinates.
          Requested convergence is 1.0D-08 RMS, and 1.0D-07 maximum.
          Secondary convergence is 1.0D-12 RMS, and 1.0D-12 maximum.
          NewPWx=T KeepS1=T KeepF1=T KeepIn=T MapXYZ=F SortEE=F KeepMc=T.
          MDV=     498073436 using IRadAn=       2.
          Keep R1 ints in memory in canonical form, NReq=237059375.
 Symmetry not used in FoFDir.
 MinBra= 0 MaxBra= 2 Meth= 1.
 IRaf=       0 NMat=   1 IRICut=       1 DoRegI=T DoRafI=F ISym2E= 0 JSym2E=0.
          Solving linear equations simultaneously, MaxMat=       0.
          There are    51 degrees of freedom in the 1st order CPHF.  IDoFFX=5.
     48 vectors produced by pass  0 Test12= 8.07D-15 1.96D-09 XBig12= 4.21D+01 3.12D+00.
 AX will form    48 AO Fock derivatives at one time.
     48 vectors produced by pass  1 Test12= 8.07D-15 1.96D-09 XBig12= 2.16D+00 3.35D-01.
     48 vectors produced by pass  2 Test12= 8.07D-15 1.96D-09 XBig12= 3.04D-02 2.71D-02.
     48 vectors produced by pass  3 Test12= 8.07D-15 1.96D-09 XBig12= 3.67D-04 3.28D-03.
     48 vectors produced by pass  4 Test12= 8.07D-15 1.96D-09 XBig12= 3.25D-06 2.56D-04.
     48 vectors produced by pass  5 Test12= 8.07D-15 1.96D-09 XBig12= 1.95D-08 1.87D-05.
     48 vectors produced by pass  6 Test12= 8.07D-15 1.96D-09 XBig12= 1.16D-10 1.48D-06.
      7 vectors produced by pass  7 Test12= 8.07D-15 1.96D-09 XBig12= 7.70D-13 1.11D-07.
      3 vectors produced by pass  8 Test12= 8.07D-15 1.96D-09 XBig12= 3.86D-15 8.15D-09.
 Inverted reduced A of dimension   346 with in-core refinement.
 FullF1:  Do perturbations    1 to    51.
 Saving first derivative matrices.
 End of Minotr Frequency-dependent properties file   721 does not exist.
 End of Minotr Frequency-dependent properties file   722 does not exist.
 Leave Link 1002 at Tue Dec  7 15:45:38 2021, MaxMem=  498073600 cpu:     271.8
 (Enter /apps/software//g09/l811.exe)
 MDV=   498073600.
 Form MO integral derivatives with frozen-active canonical formalism.
 MOERI=1 MOERIx=1 NAtoms=    16 NAtomX=    16.
 Discarding MO integrals.
 MO basis two electron integral derivatives will not be stored on disk.
 IAlg= 3 DoFC=T DoPWx=T Debug=F.
 Frozen-core window:  NFC=   6 NFV=   0.
 Reordered first order wavefunction length =     33899378
 In DefCFB: NBatch=  1 ICI= 23 ICA=179 LFMax= 36
            Large arrays: LIAPS=   691919488 LIARS=   137870096 words.
 In StABat: MaxSiz= 23 MinSiz=  7 NAtomB= 10
 DoIAMN: NPSUse=  6.
 Leave Link  811 at Tue Dec  7 15:54:46 2021, MaxMem=  498073600 cpu:    3263.6
 (Enter /apps/software//g09/l804.exe)
 Frozen-core window:  NFC=   6 NFV=   0.
 Closed-shell transformation, MDV=   498073600 ITran=4 ISComp=1.
 Semi-Direct transformation.
 ModeAB=           2 MOrb=            23 LenV=     496954151
 LASXX=     87641891 LTotXX=    87641891 LenRXX=    87641891
 LTotAB=    88933387 MaxLAS=   100985456 LenRXY=   100985456
 NonZer=   175283782 LenScr=   263957504 LnRSAI=           0
 LnScr1=           0 LExtra=           0 Total=    452584851
 MaxDsk=          -1 SrtSym=           F ITran=            4
 DoSDTr:  NPSUse=  6
 JobTyp=0 Pass  1:  I=   1 to  23.
 (rs|ai) integrals will be sorted in core.
 Complete sort for first half transformation.
 First half transformation complete.
 Begin second half transformation for I=  10.
 Begin second half transformation for I=  20.
 Begin second half transformation for I=  10.
 Begin second half transformation for I=  20.
 Complete sort for second half transformation.
 Second half transformation complete.
 Spin components of T(2) and E(2):
     alpha-alpha T2 =       0.4546035632D-01 E2=     -0.1120155996D+00
     alpha-beta  T2 =       0.2544789518D+00 E2=     -0.6844569887D+00
     beta-beta   T2 =       0.4546035632D-01 E2=     -0.1120155996D+00
 ANorm=    0.1640365608D+01
 E2 =    -0.9084881880D+00 EUMP2 =    -0.23384945193577D+03
 Leave Link  804 at Tue Dec  7 15:55:51 2021, MaxMem=  498073600 cpu:     379.7
 (Enter /apps/software//g09/l1002.exe)
 Minotr:  Closed shell wavefunction.
          Computing MP2/KS-MP2 derivatives.
          Using Z-Vector for PSCF gradient.
          Skipping F1 and S1 gradient terms here.
          IDoAtm=1111111111111111
          Frozen-core window.
          Using MO integrals in the linear equations.
          Forming densities via direct SCF.
          Differentiating once with respect to electric field.
                with respect to dipole field.
          Differentiating once with respect to nuclear coordinates.
          Requested convergence is 1.0D-10 RMS, and 1.0D-09 maximum.
          NewPWx=F KeepS1=T KeepF1=T KeepIn=T MapXYZ=F SortEE=F KeepMc=T.
          MDV=     498073436 using IRadAn=       0.
          Solving linear equations separately, MaxMat=       0.
          There are     1 degrees of freedom in the 1st order CPHF.  IDoFFX=0.
 Symmetry not used in FoFDir.
 MinBra= 0 MaxBra= 2 Meth= 1.
 IRaf=       0 NMat=   1 IRICut=       1 DoRegI=T DoRafI=F ISym2E= 0 JSym2E=0.
 LinEq1:  Iter=  0 NonCon=     1 RMS=3.21D-03 Max=4.33D-02
 LinEq1:  Iter=  1 NonCon=     1 RMS=8.37D-04 Max=8.82D-03
 LinEq1:  Iter=  2 NonCon=     1 RMS=3.14D-04 Max=8.70D-03
 LinEq1:  Iter=  3 NonCon=     1 RMS=9.91D-05 Max=2.80D-03
 LinEq1:  Iter=  4 NonCon=     1 RMS=3.77D-05 Max=9.98D-04
 LinEq1:  Iter=  5 NonCon=     1 RMS=1.62D-05 Max=4.28D-04
 LinEq1:  Iter=  6 NonCon=     1 RMS=4.01D-06 Max=6.22D-05
 LinEq1:  Iter=  7 NonCon=     1 RMS=8.72D-07 Max=8.36D-06
 LinEq1:  Iter=  8 NonCon=     1 RMS=2.17D-07 Max=3.14D-06
 LinEq1:  Iter=  9 NonCon=     1 RMS=5.58D-08 Max=6.98D-07
 LinEq1:  Iter= 10 NonCon=     1 RMS=2.18D-08 Max=3.81D-07
 LinEq1:  Iter= 11 NonCon=     1 RMS=4.71D-09 Max=4.97D-08
 LinEq1:  Iter= 12 NonCon=     1 RMS=1.16D-09 Max=1.91D-08
 LinEq1:  Iter= 13 NonCon=     1 RMS=2.33D-10 Max=4.76D-09
 LinEq1:  Iter= 14 NonCon=     0 RMS=5.65D-11 Max=9.48D-10
 Linear equations converged to 1.000D-10 1.000D-09 after    14 iterations.
 End of Minotr Frequency-dependent properties file   721 does not exist.
 End of Minotr Frequency-dependent properties file   722 does not exist.
 Leave Link 1002 at Tue Dec  7 15:56:01 2021, MaxMem=  498073600 cpu:      60.5
 (Enter /apps/software//g09/l1102.exe)
 Use density number 2.
 Symmetrizing basis deriv contribution to polar:
 IMax=3 JMax=2 DiffMx= 0.00D+00
 Leave Link 1102 at Tue Dec  7 15:56:01 2021, MaxMem=  498073600 cpu:       0.2
 (Enter /apps/software//g09/l1110.exe)
 Forming Gx(P) for generalized density number  2 NAtomX=    16.
 Integral derivatives from FoFDir/FoFCou, PRISM(SPDF).
 Do as many integral derivatives as possible in FoFDir.
 G2DrvN: MDV=     498073368.
 G2DrvN: will do    17 centers at a time, making    1 passes doing MaxLOS=2.
 Calling FoFCou, ICntrl=  3107 FMM=F I1Cent=   0 AccDes= 0.00D+00.
 FoFCou: FMM=F IPFlag=           0 FMFlag=      100000 FMFlg1=           0
         NFxFlg=           0 DoJE=F BraDBF=F KetDBF=F FulRan=T
         Omega=  0.000000  0.000000  1.000000  0.000000  0.000000 ICntrl=    3107 IOpCl=  0
         NMat0=    1 NMatS0=    1 NMatT0=    0 NMatD0=    1 NMtDS0=    0 NMtDT0=    0
         I1Cent=           0 NGrid=           0.
 Symmetry not used in FoFCou.
 FoFDir/FoFCou used for L=0 through L=2.
 End of G2Drv Frequency-dependent properties file   721 does not exist.
 End of G2Drv Frequency-dependent properties file   722 does not exist.
 Leave Link 1110 at Tue Dec  7 15:56:20 2021, MaxMem=  498073600 cpu:     108.9
 (Enter /apps/software//g09/l1112.exe)
 MP22nd: MDV=     498073600
 This link is doing NAtomX=    16 total of    51 degrees of freedom.
 Using ON3 I/O method in MakUI.
 Frozen-core window:  NFC=   6 NFV=   0.
 Using Ix for Sx.
 Use MO integrals over full window.
 Using OV2 memory method for fx*t*t/D, MaxI=    23 DoOO2=F NP=   6.
 R2 and R3 integrals will be kept in memory, NReq=   477039992.
 Symmetry not used in FoFDir.
 MinBra= 0 MaxBra= 2 Meth= 1.
 IRaf=       0 NMat=   1 IRICut=       1 DoRegI=T DoRafI=F ISym2E= 0 JSym2E=0.
 DD1Dir will call FoFMem   1 times, MxPair=       552
 NAB=   276 NAA=     0 NBB=     0.
 Discarding MO integrals.
 Leave Link 1112 at Tue Dec  7 16:05:44 2021, MaxMem=  498073600 cpu:    3304.1
 (Enter /apps/software//g09/l601.exe)
 Copying SCF densities to generalized density rwf, IOpCl= 0 IROHF=0.

 **********************************************************************

            Population analysis using the SCF density.

 **********************************************************************

 Alpha  occ. eigenvalues --  -11.23844 -11.23842 -11.23073 -11.22948 -11.22376
 Alpha  occ. eigenvalues --  -11.22262  -1.09533  -1.01505  -0.97866  -0.85191
 Alpha  occ. eigenvalues --   -0.79688  -0.71635  -0.67085  -0.63816  -0.59596
 Alpha  occ. eigenvalues --   -0.57016  -0.56786  -0.52034  -0.50704  -0.48939
 Alpha  occ. eigenvalues --   -0.47407  -0.30524  -0.30496
 Alpha virt. eigenvalues --    0.04441   0.05099   0.05333   0.06229   0.07078
 Alpha virt. eigenvalues --    0.07418   0.07661   0.08118   0.09590   0.10888
 Alpha virt. eigenvalues --    0.10997   0.14091   0.14093   0.16280   0.16769
 Alpha virt. eigenvalues --    0.16918   0.17279   0.18435   0.19079   0.19145
 Alpha virt. eigenvalues --    0.19709   0.20081   0.20259   0.21528   0.21541
 Alpha virt. eigenvalues --    0.21910   0.22442   0.22689   0.23923   0.24245
 Alpha virt. eigenvalues --    0.24360   0.25102   0.25355   0.25428   0.28404
 Alpha virt. eigenvalues --    0.31614   0.31617   0.33432   0.35379   0.35429
 Alpha virt. eigenvalues --    0.41080   0.41375   0.43242   0.43411   0.43994
 Alpha virt. eigenvalues --    0.45395   0.47565   0.49191   0.52177   0.57260
 Alpha virt. eigenvalues --    0.58716   0.59015   0.59971   0.61773   0.62765
 Alpha virt. eigenvalues --    0.69385   0.71465   0.73765   0.74756   0.76787
 Alpha virt. eigenvalues --    0.77219   0.79007   0.82039   0.83892   0.87584
 Alpha virt. eigenvalues --    0.87741   0.88974   0.89186   0.92052   0.93010
 Alpha virt. eigenvalues --    0.93732   0.93840   0.94174   0.96258   0.99060
 Alpha virt. eigenvalues --    0.99898   1.00644   1.01975   1.03650   1.05333
 Alpha virt. eigenvalues --    1.10274   1.12032   1.16065   1.26232   1.26302
 Alpha virt. eigenvalues --    1.32037   1.36560   1.39916   1.40575   1.46490
 Alpha virt. eigenvalues --    1.49262   1.52024   1.58334   1.61810   1.71086
 Alpha virt. eigenvalues --    1.71540   1.75128   1.77777   1.79035   1.84462
 Alpha virt. eigenvalues --    1.85334   1.86472   1.88378   1.89243   1.92959
 Alpha virt. eigenvalues --    1.93576   1.96903   1.97566   1.98386   1.99587
 Alpha virt. eigenvalues --    2.03469   2.05416   2.10161   2.10821   2.12753
 Alpha virt. eigenvalues --    2.13491   2.16335   2.21024   2.23394   2.28531
 Alpha virt. eigenvalues --    2.29516   2.31143   2.36144   2.41904   2.42418
 Alpha virt. eigenvalues --    2.47430   2.48659   2.50639   2.53419   2.55142
 Alpha virt. eigenvalues --    2.57983   2.63906   2.66568   2.74610   2.76053
 Alpha virt. eigenvalues --    2.81420   2.83041   2.87358   2.89958   2.91295
 Alpha virt. eigenvalues --    2.95785   2.97149   2.97274   3.00348   3.01781
 Alpha virt. eigenvalues --    3.06395   3.08225   3.11955   3.17449   3.18503
 Alpha virt. eigenvalues --    3.19115   3.22260   3.27563   3.29180   3.31062
 Alpha virt. eigenvalues --    3.35099   3.40370   3.47902   3.54410   3.64286
 Alpha virt. eigenvalues --    3.68727   3.77709   3.82529   3.91899   3.94112
 Alpha virt. eigenvalues --    4.02935   4.16089   4.21329   4.29540   4.45440
 Alpha virt. eigenvalues --    4.46773   4.56896   4.85069  24.87461  24.97582
 Alpha virt. eigenvalues --   25.15525  25.25710  25.27824  25.34165
          Condensed to atoms (all electrons):
              1          2          3          4          5          6
     1  C    5.472615  -0.205074   0.383880   0.035009  -0.012357   0.062897
     2  C   -0.205074   5.472449   0.035073   0.384172   0.063026  -0.012123
     3  C    0.383880   0.035073   5.435290  -0.031674  -0.199164   0.046512
     4  C    0.035009   0.384172  -0.031674   5.434217   0.046455  -0.198814
     5  C   -0.012357   0.063026  -0.199164   0.046455   5.486894   0.252898
     6  C    0.062897  -0.012123   0.046512  -0.198814   0.252898   5.487141
     7  H    0.423213   0.010954  -0.046803  -0.002110  -0.003567  -0.003555
     8  H    0.452512  -0.020857  -0.070740   0.036707  -0.089008  -0.003582
     9  H    0.010962   0.423208  -0.002092  -0.046799  -0.003540  -0.003546
    10  H   -0.020794   0.452329   0.036691  -0.070684  -0.003521  -0.089023
    11  H   -0.029045  -0.001232   0.456216  -0.086564  -0.020971   0.011254
    12  H   -0.001217  -0.029044  -0.086528   0.456091   0.011255  -0.020944
    13  H   -0.037460   0.012446  -0.014299   0.009955   0.455943  -0.067972
    14  H   -0.033311   0.011118  -0.042217   0.042765   0.465015  -0.072262
    15  H    0.012466  -0.037399   0.009937  -0.014270  -0.067903   0.455863
    16  H    0.011102  -0.033295   0.042781  -0.042161  -0.072249   0.464902
              7          8          9         10         11         12
     1  C    0.423213   0.452512   0.010962  -0.020794  -0.029045  -0.001217
     2  C    0.010954  -0.020857   0.423208   0.452329  -0.001232  -0.029044
     3  C   -0.046803  -0.070740  -0.002092   0.036691   0.456216  -0.086528
     4  C   -0.002110   0.036707  -0.046799  -0.070684  -0.086564   0.456091
     5  C   -0.003567  -0.089008  -0.003540  -0.003521  -0.020971   0.011255
     6  C   -0.003555  -0.003582  -0.003546  -0.089023   0.011254  -0.020944
     7  H    0.487199  -0.020373   0.000913  -0.002161  -0.002404   0.000252
     8  H   -0.020373   0.540391  -0.002165   0.005376   0.003690  -0.000464
     9  H    0.000913  -0.002165   0.487196  -0.020379   0.000253  -0.002407
    10  H   -0.002161   0.005376  -0.020379   0.540434  -0.000465   0.003689
    11  H   -0.002404   0.003690   0.000253  -0.000465   0.509473  -0.000280
    12  H    0.000252  -0.000464  -0.002407   0.003689  -0.000280   0.509485
    13  H    0.005089  -0.009341   0.000314   0.002489  -0.001122   0.000877
    14  H    0.000112   0.004102  -0.000761   0.000571  -0.002100   0.001669
    15  H    0.000314   0.002486   0.005081  -0.009332   0.000877  -0.001118
    16  H   -0.000760   0.000574   0.000120   0.004103   0.001667  -0.002103
             13         14         15         16
     1  C   -0.037460  -0.033311   0.012466   0.011102
     2  C    0.012446   0.011118  -0.037399  -0.033295
     3  C   -0.014299  -0.042217   0.009937   0.042781
     4  C    0.009955   0.042765  -0.014270  -0.042161
     5  C    0.455943   0.465015  -0.067903  -0.072249
     6  C   -0.067972  -0.072262   0.455863   0.464902
     7  H    0.005089   0.000112   0.000314  -0.000760
     8  H   -0.009341   0.004102   0.002486   0.000574
     9  H    0.000314  -0.000761   0.005081   0.000120
    10  H    0.002489   0.000571  -0.009332   0.004103
    11  H   -0.001122  -0.002100   0.000877   0.001667
    12  H    0.000877   0.001669  -0.001118  -0.002103
    13  H    0.506312  -0.020667   0.006411  -0.003421
    14  H   -0.020667   0.501519  -0.003423  -0.000135
    15  H    0.006411  -0.003423   0.506249  -0.020665
    16  H   -0.003421  -0.000135  -0.020665   0.501494
 Mulliken atomic charges:
              1
     1  C   -0.525398
     2  C   -0.525752
     3  C    0.047136
     4  C    0.047705
     5  C   -0.309206
     6  C   -0.309644
     7  H    0.153687
     8  H    0.170692
     9  H    0.153642
    10  H    0.170677
    11  H    0.160753
    12  H    0.160787
    13  H    0.154444
    14  H    0.148004
    15  H    0.154427
    16  H    0.148045
 Sum of Mulliken atomic charges =   0.00000
 Mulliken charges with hydrogens summed into heavy atoms:
              1
     1  C   -0.201019
     2  C   -0.201433
     3  C    0.207889
     4  C    0.208493
     5  C   -0.006757
     6  C   -0.007172
 Sum of Mulliken charges with hydrogens summed into heavy atoms =   0.00000
 APT atomic charges:
              1
     1  C    0.057093
     2  C    0.056999
     3  C   -0.087346
     4  C   -0.087271
     5  C   -0.038791
     6  C   -0.038987
     7  H    0.015733
     8  H    0.000189
     9  H    0.015765
    10  H    0.000192
    11  H    0.026981
    12  H    0.026957
    13  H    0.019194
    14  H    0.006994
    15  H    0.019245
    16  H    0.007054
 Sum of APT charges=   0.00000
 APT Atomic charges with hydrogens summed into heavy atoms:
              1
     1  C    0.073014
     2  C    0.072956
     3  C   -0.060365
     4  C   -0.060314
     5  C   -0.012603
     6  C   -0.012688
     7  H    0.000000
     8  H    0.000000
     9  H    0.000000
    10  H    0.000000
    11  H    0.000000
    12  H    0.000000
    13  H    0.000000
    14  H    0.000000
    15  H    0.000000
    16  H    0.000000
 Sum of APT charges=   0.00000
 Electronic spatial extent (au):  <R**2>=            614.3648
 Charge=              0.0000 electrons
 Dipole moment (field-independent basis, Debye):
    X=              0.5583    Y=              0.0005    Z=              0.0216  Tot=              0.5587
 Quadrupole moment (field-independent basis, Debye-Ang):
   XX=            -43.7683   YY=            -36.4038   ZZ=            -38.0425
   XY=             -0.0005   XZ=              3.7575   YZ=              0.0000
 Traceless Quadrupole moment (field-independent basis, Debye-Ang):
   XX=             -4.3634   YY=              3.0010   ZZ=              1.3624
   XY=             -0.0005   XZ=              3.7575   YZ=              0.0000
 Octapole moment (field-independent basis, Debye-Ang**2):
  XXX=             -1.4380  YYY=              0.0019  ZZZ=              0.5230  XYY=              2.5229
  XXY=             -0.0020  XXZ=             -2.3733  XZZ=              1.6683  YZZ=              0.0011
  YYZ=             -1.7903  XYZ=              0.0005
 Hexadecapole moment (field-independent basis, Debye-Ang**3):
 XXXX=           -463.8204 YYYY=           -318.6617 ZZZZ=           -108.1382 XXXY=             -0.0088
 XXXZ=             29.4788 YYYX=             -0.0007 YYYZ=              0.0008 ZZZX=              8.7253
 ZZZY=              0.0034 XXYY=           -128.3789 XXZZ=            -88.0401 YYZZ=            -74.9147
 XXYZ=              0.0021 YYXZ=              8.0637 ZZXY=             -0.0031
 N-N= 2.247329007378D+02 E-N=-9.910135137609D+02  KE= 2.326291460116D+02
  Exact polarizability:  95.335  -0.004  89.275  -0.187  -0.001  60.567
 Approx polarizability:  90.466  -0.009  86.025   0.387  -0.001  58.283
 No NMR shielding tensors so no spin-rotation constants.
 Leave Link  601 at Tue Dec  7 16:05:44 2021, MaxMem=  498073600 cpu:       1.9
 (Enter /apps/software//g09/l701.exe)
 Compute integral second derivatives.
 ... and contract with generalized density number  2.
 Leave Link  701 at Tue Dec  7 16:05:45 2021, MaxMem=  498073600 cpu:       2.2
 (Enter /apps/software//g09/l702.exe)
 L702 exits ... SP integral derivatives will be done elsewhere.
 Leave Link  702 at Tue Dec  7 16:05:45 2021, MaxMem=  498073600 cpu:       0.1
 (Enter /apps/software//g09/l703.exe)
 Compute integral second derivatives, UseDBF=F ICtDFT=           0.
 Integral derivatives from FoFDir, PRISM(SPDF).
 Calling FoFJK, ICntrl=    100127 FMM=F ISym2X=0 I1Cent= 0 IOpClX= 0 NMat=1 NMatS=1 NMatT=0.
 FoFCou: FMM=F IPFlag=           0 FMFlag=      100000 FMFlg1=         800
         NFxFlg=           0 DoJE=F BraDBF=F KetDBF=F FulRan=T
         Omega=  0.000000  0.000000  1.000000  0.000000  0.000000 ICntrl=  100127 IOpCl=  0
         NMat0=    1 NMatS0=    1 NMatT0=    0 NMatD0=    1 NMtDS0=    0 NMtDT0=    0
         I1Cent=           0 NGrid=           0.
 Symmetry not used in FoFCou.
 Leave Link  703 at Tue Dec  7 16:06:35 2021, MaxMem=  498073600 cpu:     302.1
 (Enter /apps/software//g09/l716.exe)
 Dipole        = 1.95490934D-01 2.04668885D-04-2.29278711D-02
 Polarizability= 9.53348697D+01-4.17680458D-03 8.92753070D+01
                -1.87204776D-01-7.56885782D-04 6.05673950D+01
 -------------------------------------------------------------------
 Center     Atomic                   Forces (Hartrees/Bohr)
 Number     Number              X              Y              Z
 -------------------------------------------------------------------
      1        6           0.008410839    0.000864261    0.000965362
      2        6           0.008420943   -0.000885007    0.000966670
      3        6          -0.003258911    0.001327045   -0.002399282
      4        6          -0.003275149   -0.001335413   -0.002424548
      5        6          -0.004507776    0.006562082    0.001742779
      6        6          -0.004570572   -0.006537964    0.001764245
      7        1          -0.000760402    0.002037395   -0.000636889
      8        1           0.000739110   -0.002250807    0.002122555
      9        1          -0.000764988   -0.002020876   -0.000638399
     10        1           0.000737921    0.002251041    0.002118440
     11        1          -0.000337258    0.000928941   -0.001459356
     12        1          -0.000336625   -0.000934260   -0.001453605
     13        1           0.000833432    0.000303506    0.001959060
     14        1          -0.001083399    0.000367780   -0.002293971
     15        1           0.000839477   -0.000307137    0.001975092
     16        1          -0.001086643   -0.000370586   -0.002308154
 -------------------------------------------------------------------
 Cartesian Forces:  Max     0.008420943 RMS     0.002791055
 Leave Link  716 at Tue Dec  7 16:06:35 2021, MaxMem=  498073600 cpu:       0.1
 (Enter /apps/software//g09/l123.exe)
 IRC-IRC-IRC-IRC-IRC-IRC-IRC-IRC-IRC-IRC-IRC-IRC-IRC-IRC-IRC-IRC-IRC-IRC
          ******** Start new reaction path calculation ********
 Current Structure is TS -> diagonalize the Hessian.
 Supplied step size of   0.1000 bohr.
    Integration on MW PES will use step size of   0.2879 sqrt(amu)*bohr.
 Point Number:   0          Path Number:   1
 Calculating another point on the path.
 Point Number  1 in FORWARD path direction.
 Using LQA Reaction Path Following.
 IRC-IRC-IRC-IRC-IRC-IRC-IRC-IRC-IRC-IRC-IRC-IRC-IRC-IRC-IRC-IRC-IRC-IRC
 Leave Link  123 at Tue Dec  7 16:06:35 2021, MaxMem=  498073600 cpu:       0.1
 (Enter /apps/software//g09/l202.exe)
                          Input orientation:                          
 ---------------------------------------------------------------------
 Center     Atomic      Atomic             Coordinates (Angstroms)
 Number     Number       Type             X           Y           Z
 ---------------------------------------------------------------------
      1          6           0       -0.379904    1.426473    0.493028
      2          6           0       -0.380140   -1.426619    0.493084
      3          6           0       -1.294970    0.698372   -0.259975
      4          6           0       -1.295004   -0.698342   -0.259937
      5          6           0        1.564634    0.699256   -0.246601
      6          6           0        1.565161   -0.699147   -0.246756
      7          1           0       -0.332085    2.504279    0.376680
      8          1           0       -0.074139    1.070739    1.468923
      9          1           0       -0.332449   -2.504453    0.376754
     10          1           0       -0.073972   -1.070843    1.468837
     11          1           0       -1.868948    1.211992   -1.026270
     12          1           0       -1.869077   -1.211882   -1.026224
     13          1           0        2.109614    1.228366    0.527346
     14          1           0        1.476340    1.231858   -1.184918
     15          1           0        2.110072   -1.228192    0.527243
     16          1           0        1.476801   -1.231784   -1.185020
 ---------------------------------------------------------------------
                    Distance matrix (angstroms):
                    1          2          3          4          5
     1  C    0.000000
     2  C    2.853092   0.000000
     3  C    1.390860   2.433023   0.000000
     4  C    2.432942   1.390829   1.396715   0.000000
     5  C    2.203888   2.974664   2.859636   3.182921   0.000000
     6  C    2.974697   2.204717   3.183330   2.860196   1.398403
     7  H    1.085122   3.932915   2.143310   3.404303   2.691493
     8  H    1.082779   2.698648   2.148994   2.758463   2.401375
     9  H    3.932932   1.085142   3.404403   2.143344   3.775082
    10  H    2.698589   1.082779   2.758577   2.149032   2.959900
    11  H    2.138111   3.389285   1.086491   2.136833   3.558127
    12  H    3.389200   2.138069   2.136775   1.086498   4.006323
    13  H    2.497624   3.639917   3.534397   3.990419   1.084414
    14  H    2.509785   3.650988   2.969897   3.501658   1.082543
    15  H    3.639835   2.498339   3.990699   3.534818   2.147415
    16  H    3.650963   2.510423   3.501989   2.970394   2.148781
                    6          7          8          9         10
     6  C    0.000000
     7  H    3.774938   0.000000
     8  H    2.960297   1.820596   0.000000
     9  H    2.692363   5.008732   3.747206   0.000000
    10  H    2.401703   3.747122   2.141582   1.820630   0.000000
    11  H    4.006644   2.449535   3.076894   4.259256   3.828685
    12  H    3.558716   4.259147   3.828566   2.449553   3.076950
    13  H    2.147316   2.759086   2.383316   4.463215   3.307690
    14  H    2.148678   2.707037   3.077794   4.435150   3.840353
    15  H    1.084385   4.462975   3.307964   2.759964   2.383570
    16  H    1.082520   4.434991   3.840630   2.707805   3.077947
                   11         12         13         14         15
    11  H    0.000000
    12  H    2.423874   0.000000
    13  H    4.271176   4.919184   0.000000
    14  H    3.349107   4.145945   1.825622   0.000000
    15  H    4.919401   4.271669   2.456558   3.063488   0.000000
    16  H    4.146237   3.349703   3.063492   2.463642   1.825621
                   16
    16  H    0.000000
 Symmetry turned off by external request.
 Stoichiometry    C6H10
 Framework group  C1[X(C6H10)]
 Deg. of freedom    42
 Full point group                 C1      NOp   1
 Rotational constants (GHZ):      4.3856468      3.5541335      2.3019517
 Leave Link  202 at Tue Dec  7 16:06:35 2021, MaxMem=  498073600 cpu:       0.1
 (Enter /apps/software//g09/l301.exe)
 Standard basis: 6-311++G(d,p) (5D, 7F)
 Ernie: Thresh=  0.10000D-02 Tol=  0.10000D-05 Strict=F.
 Integral buffers will be    131072 words long.
 Raffenetti 1 integral format.
 Two-electron integral symmetry is turned off.
   202 basis functions,   306 primitive gaussians,   208 cartesian basis functions
    23 alpha electrons       23 beta electrons
       nuclear repulsion energy       225.2962381879 Hartrees.
 IExCor=    0 DFT=F Ex=HF Corr=None ExCW=0 ScaHFX=  1.000000
 ScaDFX=  1.000000  1.000000  1.000000  1.000000 ScalE2=  1.000000  1.000000
 IRadAn=      0 IRanWt=     -1 IRanGd=            0 ICorTp=0
 NAtoms=   16 NActive=   16 NUniq=   16 SFac= 7.50D-01 NAtFMM=   80 NAOKFM=F Big=F
 Leave Link  301 at Tue Dec  7 16:06:35 2021, MaxMem=  498073600 cpu:       0.2
 (Enter /apps/software//g09/l302.exe)
 NPDir=0 NMtPBC=     1 NCelOv=     1 NCel=       1 NClECP=     1 NCelD=      1
         NCelK=      1 NCelE2=     1 NClLst=     1 CellRange=     0.0.
 One-electron integrals computed using PRISM.
 NBasis=   202 RedAO= T  NBF=   202
 NBsUse=   202 1.00D-06 NBFU=   202
 Leave Link  302 at Tue Dec  7 16:06:36 2021, MaxMem=  498073600 cpu:       1.8
 (Enter /apps/software//g09/l303.exe)
 DipDrv:  MaxL=1.
 Leave Link  303 at Tue Dec  7 16:06:36 2021, MaxMem=  498073600 cpu:       0.2
 (Enter /apps/software//g09/l401.exe)
 Initial guess read from the read-write file.
 B after Tr=     0.000000    0.000000    0.000000
         Rot=    1.000000    0.000000    0.000000    0.000000 Ang=   0.00 deg.
 Guess basis will be translated and rotated to current coordinates.
 Generating alternative initial guess.
 Harris functional with IExCor=  205 diagonalized for initial guess.
 ExpMin= 3.60D-02 ExpMax= 4.56D+03 ExpMxC= 6.82D+02 IAcc=3 IRadAn=         0 AccDes= 0.00D+00
 HarFok:  IExCor=  205 AccDes= 0.00D+00 IRadAn=         0 IDoV= 1
 ScaDFX=  1.000000  1.000000  1.000000  1.000000
 FoFCou: FMM=F IPFlag=           0 FMFlag=      100000 FMFlg1=           0
         NFxFlg=           0 DoJE=T BraDBF=F KetDBF=T FulRan=T
         Omega=  0.000000  0.000000  1.000000  0.000000  0.000000 ICntrl=     500 IOpCl=  0
         NMat0=    1 NMatS0=    1 NMatT0=    0 NMatD0=    1 NMtDS0=    0 NMtDT0=    0
         I1Cent=           4 NGrid=           0.
 Symmetry not used in FoFCou.
 Harris En= -233.515163811152    
 Leave Link  401 at Tue Dec  7 16:06:37 2021, MaxMem=  498073600 cpu:       7.5
 (Enter /apps/software//g09/l502.exe)
 Closed shell SCF:
 Requested convergence on RMS density matrix=1.00D-08 within 128 cycles.
 Requested convergence on MAX density matrix=1.00D-06.
 Requested convergence on             energy=1.00D-06.
 No special actions if energy rises.
 Using DIIS extrapolation, IDIIS=  1040.
 Two-electron integral symmetry not used.
 Keep R1 ints in memory in canonical form, NReq=240952756.
 IEnd=      150466 IEndB=      150466 NGot=   498073600 MDV=   261745503
 LenX=   261745503 LenY=   261701798
 Symmetry not used in FoFDir.
 MinBra= 0 MaxBra= 2 Meth= 1.
 IRaf=       0 NMat=   1 IRICut=       1 DoRegI=T DoRafI=F ISym2E= 0 JSym2E=0.

 Cycle   1  Pass 1  IDiag  1:
 E= -232.937937530612    
 DIIS: error= 2.56D-03 at cycle   1 NSaved=   1.
 NSaved= 1 IEnMin= 1 EnMin= -232.937937530612     IErMin= 1 ErrMin= 2.56D-03
 ErrMax= 2.56D-03 EMaxC= 1.00D-01 BMatC= 5.37D-04 BMatP= 5.37D-04
 IDIUse=3 WtCom= 9.74D-01 WtEn= 2.56D-02
 Coeff-Com:  0.100D+01
 Coeff-En:   0.100D+01
 Coeff:      0.100D+01
 Gap=     0.351 Goal=   None    Shift=    0.000
 GapD=    0.351 DampG=1.000 DampE=1.000 DampFc=1.0000 IDamp=-1.
 RMSDP=3.30D-04 MaxDP=7.19D-03              OVMax= 1.65D-02

 Cycle   2  Pass 1  IDiag  1:
 E= -232.939202642871     Delta-E=       -0.001265112259 Rises=F Damp=F
 DIIS: error= 1.48D-03 at cycle   2 NSaved=   2.
 NSaved= 2 IEnMin= 2 EnMin= -232.939202642871     IErMin= 2 ErrMin= 1.48D-03
 ErrMax= 1.48D-03 EMaxC= 1.00D-01 BMatC= 7.68D-05 BMatP= 5.37D-04
 IDIUse=3 WtCom= 9.85D-01 WtEn= 1.48D-02
 Coeff-Com: -0.239D+00 0.124D+01
 Coeff-En:   0.000D+00 0.100D+01
 Coeff:     -0.235D+00 0.124D+01
 Gap=     0.348 Goal=   None    Shift=    0.000
 RMSDP=1.71D-04 MaxDP=3.05D-03 DE=-1.27D-03 OVMax= 1.29D-02

 Cycle   3  Pass 1  IDiag  1:
 E= -232.939640031693     Delta-E=       -0.000437388821 Rises=F Damp=F
 DIIS: error= 8.36D-04 at cycle   3 NSaved=   3.
 NSaved= 3 IEnMin= 3 EnMin= -232.939640031693     IErMin= 3 ErrMin= 8.36D-04
 ErrMax= 8.36D-04 EMaxC= 1.00D-01 BMatC= 2.04D-05 BMatP= 7.68D-05
 IDIUse=3 WtCom= 9.92D-01 WtEn= 8.36D-03
 Coeff-Com:  0.188D-01-0.527D+00 0.151D+01
 Coeff-En:   0.000D+00 0.000D+00 0.100D+01
 Coeff:      0.186D-01-0.522D+00 0.150D+01
 Gap=     0.347 Goal=   None    Shift=    0.000
 RMSDP=1.50D-04 MaxDP=2.84D-03 DE=-4.37D-04 OVMax= 1.07D-02

 Cycle   4  Pass 1  IDiag  1:
 E= -232.939814268995     Delta-E=       -0.000174237302 Rises=F Damp=F
 DIIS: error= 3.56D-04 at cycle   4 NSaved=   4.
 NSaved= 4 IEnMin= 4 EnMin= -232.939814268995     IErMin= 4 ErrMin= 3.56D-04
 ErrMax= 3.56D-04 EMaxC= 1.00D-01 BMatC= 5.19D-06 BMatP= 2.04D-05
 IDIUse=3 WtCom= 9.96D-01 WtEn= 3.56D-03
 Coeff-Com:  0.742D-01-0.415D+00 0.118D+00 0.122D+01
 Coeff-En:   0.000D+00 0.000D+00 0.000D+00 0.100D+01
 Coeff:      0.739D-01-0.413D+00 0.117D+00 0.122D+01
 Gap=     0.347 Goal=   None    Shift=    0.000
 RMSDP=9.72D-05 MaxDP=2.23D-03 DE=-1.74D-04 OVMax= 6.64D-03

 Cycle   5  Pass 1  IDiag  1:
 E= -232.939857570534     Delta-E=       -0.000043301539 Rises=F Damp=F
 DIIS: error= 7.32D-05 at cycle   5 NSaved=   5.
 NSaved= 5 IEnMin= 5 EnMin= -232.939857570534     IErMin= 5 ErrMin= 7.32D-05
 ErrMax= 7.32D-05 EMaxC= 1.00D-01 BMatC= 4.28D-07 BMatP= 5.19D-06
 IDIUse=1 WtCom= 1.00D+00 WtEn= 0.00D+00
 Coeff-Com: -0.342D-02 0.876D-01-0.240D+00-0.452D-01 0.120D+01
 Coeff:     -0.342D-02 0.876D-01-0.240D+00-0.452D-01 0.120D+01
 Gap=     0.347 Goal=   None    Shift=    0.000
 RMSDP=4.51D-05 MaxDP=1.22D-03 DE=-4.33D-05 OVMax= 2.14D-03

 Cycle   6  Pass 1  IDiag  1:
 E= -232.939860715841     Delta-E=       -0.000003145308 Rises=F Damp=F
 DIIS: error= 9.45D-06 at cycle   6 NSaved=   6.
 NSaved= 6 IEnMin= 6 EnMin= -232.939860715841     IErMin= 6 ErrMin= 9.45D-06
 ErrMax= 9.45D-06 EMaxC= 1.00D-01 BMatC= 2.26D-08 BMatP= 4.28D-07
 IDIUse=1 WtCom= 1.00D+00 WtEn= 0.00D+00
 Coeff-Com: -0.545D-02 0.380D-01-0.236D-01-0.964D-01 0.941D-01 0.993D+00
 Coeff:     -0.545D-02 0.380D-01-0.236D-01-0.964D-01 0.941D-01 0.993D+00
 Gap=     0.347 Goal=   None    Shift=    0.000
 RMSDP=7.25D-06 MaxDP=2.39D-04 DE=-3.15D-06 OVMax= 1.72D-04

 Cycle   7  Pass 1  IDiag  1:
 E= -232.939860781735     Delta-E=       -0.000000065894 Rises=F Damp=F
 DIIS: error= 3.72D-06 at cycle   7 NSaved=   7.
 NSaved= 7 IEnMin= 7 EnMin= -232.939860781735     IErMin= 7 ErrMin= 3.72D-06
 ErrMax= 3.72D-06 EMaxC= 1.00D-01 BMatC= 1.98D-09 BMatP= 2.26D-08
 IDIUse=1 WtCom= 1.00D+00 WtEn= 0.00D+00
 Coeff-Com: -0.412D-03-0.132D-02 0.137D-01-0.101D-01-0.654D-01 0.108D+00
 Coeff-Com:  0.955D+00
 Coeff:     -0.412D-03-0.132D-02 0.137D-01-0.101D-01-0.654D-01 0.108D+00
 Coeff:      0.955D+00
 Gap=     0.347 Goal=   None    Shift=    0.000
 RMSDP=1.71D-06 MaxDP=7.27D-05 DE=-6.59D-08 OVMax= 5.29D-05

 Cycle   8  Pass 1  IDiag  1:
 E= -232.939860786920     Delta-E=       -0.000000005185 Rises=F Damp=F
 DIIS: error= 1.72D-06 at cycle   8 NSaved=   8.
 NSaved= 8 IEnMin= 8 EnMin= -232.939860786920     IErMin= 8 ErrMin= 1.72D-06
 ErrMax= 1.72D-06 EMaxC= 1.00D-01 BMatC= 4.59D-10 BMatP= 1.98D-09
 IDIUse=1 WtCom= 1.00D+00 WtEn= 0.00D+00
 Coeff-Com:  0.608D-03-0.547D-02 0.709D-02 0.908D-02-0.310D-01-0.104D+00
 Coeff-Com:  0.286D+00 0.838D+00
 Coeff:      0.608D-03-0.547D-02 0.709D-02 0.908D-02-0.310D-01-0.104D+00
 Coeff:      0.286D+00 0.838D+00
 Gap=     0.347 Goal=   None    Shift=    0.000
 RMSDP=6.01D-07 MaxDP=3.08D-05 DE=-5.19D-09 OVMax= 1.51D-05

 Cycle   9  Pass 1  IDiag  1:
 E= -232.939860787776     Delta-E=       -0.000000000856 Rises=F Damp=F
 DIIS: error= 3.71D-07 at cycle   9 NSaved=   9.
 NSaved= 9 IEnMin= 9 EnMin= -232.939860787776     IErMin= 9 ErrMin= 3.71D-07
 ErrMax= 3.71D-07 EMaxC= 1.00D-01 BMatC= 1.73D-11 BMatP= 4.59D-10
 IDIUse=1 WtCom= 1.00D+00 WtEn= 0.00D+00
 Coeff-Com: -0.617D-04 0.102D-02-0.249D-02-0.400D-03 0.115D-01 0.473D-02
 Coeff-Com: -0.119D+00-0.177D+00 0.128D+01
 Coeff:     -0.617D-04 0.102D-02-0.249D-02-0.400D-03 0.115D-01 0.473D-02
 Coeff:     -0.119D+00-0.177D+00 0.128D+01
 Gap=     0.347 Goal=   None    Shift=    0.000
 RMSDP=1.72D-07 MaxDP=1.03D-05 DE=-8.56D-10 OVMax= 4.56D-06

 Cycle  10  Pass 1  IDiag  1:
 E= -232.939860787841     Delta-E=       -0.000000000064 Rises=F Damp=F
 DIIS: error= 8.44D-08 at cycle  10 NSaved=  10.
 NSaved=10 IEnMin=10 EnMin= -232.939860787841     IErMin=10 ErrMin= 8.44D-08
 ErrMax= 8.44D-08 EMaxC= 1.00D-01 BMatC= 1.19D-12 BMatP= 1.73D-11
 IDIUse=1 WtCom= 1.00D+00 WtEn= 0.00D+00
 Coeff-Com: -0.380D-04 0.303D-03-0.301D-03-0.534D-03 0.111D-02 0.634D-02
 Coeff-Com: -0.557D-02-0.474D-01-0.103D+00 0.115D+01
 Coeff:     -0.380D-04 0.303D-03-0.301D-03-0.534D-03 0.111D-02 0.634D-02
 Coeff:     -0.557D-02-0.474D-01-0.103D+00 0.115D+01
 Gap=     0.347 Goal=   None    Shift=    0.000
 RMSDP=3.82D-08 MaxDP=1.07D-06 DE=-6.42D-11 OVMax= 8.61D-07

 Cycle  11  Pass 1  IDiag  1:
 E= -232.939860787846     Delta-E=       -0.000000000006 Rises=F Damp=F
 DIIS: error= 3.74D-08 at cycle  11 NSaved=  11.
 NSaved=11 IEnMin=11 EnMin= -232.939860787846     IErMin=11 ErrMin= 3.74D-08
 ErrMax= 3.74D-08 EMaxC= 1.00D-01 BMatC= 7.70D-14 BMatP= 1.19D-12
 IDIUse=1 WtCom= 1.00D+00 WtEn= 0.00D+00
 Coeff-Com:  0.710D-05-0.955D-04 0.197D-03 0.798D-04-0.939D-03-0.776D-03
 Coeff-Com:  0.102D-01 0.162D-01-0.947D-01-0.679D-01 0.114D+01
 Coeff:      0.710D-05-0.955D-04 0.197D-03 0.798D-04-0.939D-03-0.776D-03
 Coeff:      0.102D-01 0.162D-01-0.947D-01-0.679D-01 0.114D+01
 Gap=     0.347 Goal=   None    Shift=    0.000
 RMSDP=1.69D-08 MaxDP=1.13D-06 DE=-5.80D-12 OVMax= 2.89D-07

 Cycle  12  Pass 1  IDiag  1:
 E= -232.939860787847     Delta-E=       -0.000000000001 Rises=F Damp=F
 DIIS: error= 6.21D-09 at cycle  12 NSaved=  12.
 NSaved=12 IEnMin=12 EnMin= -232.939860787847     IErMin=12 ErrMin= 6.21D-09
 ErrMax= 6.21D-09 EMaxC= 1.00D-01 BMatC= 5.90D-15 BMatP= 7.70D-14
 IDIUse=1 WtCom= 1.00D+00 WtEn= 0.00D+00
 Coeff-Com:  0.221D-05-0.182D-04 0.190D-04 0.324D-04-0.776D-04-0.372D-03
 Coeff-Com:  0.351D-03 0.263D-02 0.386D-02-0.681D-01 0.117D-01 0.105D+01
 Coeff:      0.221D-05-0.182D-04 0.190D-04 0.324D-04-0.776D-04-0.372D-03
 Coeff:      0.351D-03 0.263D-02 0.386D-02-0.681D-01 0.117D-01 0.105D+01
 Gap=     0.347 Goal=   None    Shift=    0.000
 RMSDP=2.95D-09 MaxDP=9.27D-08 DE=-7.39D-13 OVMax= 4.99D-08

 SCF Done:  E(RHF) =  -232.939860788     A.U. after   12 cycles
             Convg  =    0.2948D-08             -V/T =  2.0016
 KE= 2.325777024902D+02 PE=-9.920993131790D+02 EE= 3.012855117130D+02
 Leave Link  502 at Tue Dec  7 16:06:47 2021, MaxMem=  498073600 cpu:      61.7
 (Enter /apps/software//g09/l801.exe)
 ExpMin= 3.60D-02 ExpMax= 4.56D+03 ExpMxC= 6.82D+02 IAcc=3 IRadAn=         5 AccDes= 0.00D+00
 HarFok:  IExCor=  205 AccDes= 0.00D+00 IRadAn=         5 IDoV=-2
 ScaDFX=  1.000000  1.000000  1.000000  1.000000
 Largest valence mixing into a core orbital is  1.48D-04
 Largest core mixing into a valence orbital is  4.03D-05
 Range of M.O.s used for correlation:     7   202
 NBasis=   202 NAE=    23 NBE=    23 NFC=     6 NFV=     0
 NROrb=    196 NOA=    17 NOB=    17 NVA=   179 NVB=   179

 **** Warning!!: The largest alpha MO coefficient is  0.10149850D+03

 Leave Link  801 at Tue Dec  7 16:06:48 2021, MaxMem=  498073600 cpu:       1.5
 (Enter /apps/software//g09/l906.exe)
 Frozen-core derivative calculation, NFC=   6 NFV=   0.
 FulOut=F Deriv=T AODrv=T NAtomX=    16
   MMem=         108  MDisk=          17 MDiskD=          17
  W3Min=      966368 MinDsk=     1417704 NBas6D=         208
 NBas2D=       22000    NTT=       21736    LW2=     2040000
    MDV=   497561271 MDiskM=       33090 NBas2p=       21931
 Fully direct method using O(ONN) memory.
 IMap=   1   2   3   4   5   6   7   8   9  10  11  12  13  14  15  16  17  18  19  20
 IMap=  21  22  23
 JobTyp=1 Pass  1:  I=   7 to  22 NPSUse=  6 ParTrn=T ParDer=T DoDerP=T.
 JobTyp=1 Pass  2:  I=  23 to  23 NPSUse=  6 ParTrn=T ParDer=T DoDerP=T.
 Spin components of T(2) and E(2):
     alpha-alpha T2 =       0.4599164370D-01 E2=     -0.1127032243D+00
     alpha-beta  T2 =       0.2553031704D+00 E2=     -0.6855464698D+00
     beta-beta   T2 =       0.4599164370D-01 E2=     -0.1127032243D+00
 The integrals were generated   2 times.
 ANorm=    0.1160726694D+01
 E2 =    -0.9109529184D+00 EUMP2 =    -0.23385081370622D+03
 Leave Link  906 at Tue Dec  7 16:07:41 2021, MaxMem=  498073600 cpu:     320.4
 (Enter /apps/software//g09/l1101.exe)
 Leave Link 1101 at Tue Dec  7 16:07:41 2021, MaxMem=  498073600 cpu:       0.1
 (Enter /apps/software//g09/l1102.exe)
 Leave Link 1102 at Tue Dec  7 16:07:41 2021, MaxMem=  498073600 cpu:       0.1
 (Enter /apps/software//g09/l1110.exe)
 Leave Link 1110 at Tue Dec  7 16:07:41 2021, MaxMem=  498073600 cpu:       0.1
 (Enter /apps/software//g09/l1002.exe)
 Minotr:  Closed shell wavefunction.
 Leave Link 1002 at Tue Dec  7 16:07:41 2021, MaxMem=  498073600 cpu:       0.1
 (Enter /apps/software//g09/l811.exe)
 Leave Link  811 at Tue Dec  7 16:07:41 2021, MaxMem=  498073600 cpu:       0.0
 (Enter /apps/software//g09/l804.exe)
 Leave Link  804 at Tue Dec  7 16:07:41 2021, MaxMem=  498073600 cpu:       0.0
 (Enter /apps/software//g09/l1002.exe)
 Minotr:  Closed shell wavefunction.
          Computing MP2/KS-MP2 derivatives.
          Using Z-Vector for PSCF gradient.
          Skipping F1 and S1 gradient terms here.
          IDoAtm=1111111111111111
          Frozen-core window.
          Direct CPHF calculation.
          Differentiating once with respect to electric field.
                with respect to dipole field.
          Differentiating once with respect to nuclear coordinates.
          Requested convergence is 1.0D-10 RMS, and 1.0D-09 maximum.
          NewPWx=F KeepS1=T KeepF1=T KeepIn=T MapXYZ=F SortEE=F KeepMc=T.
          MDV=     498073436 using IRadAn=       0.
          Keep R1 ints in memory in canonical form, NReq=237059375.
 Symmetry not used in FoFDir.
 MinBra= 0 MaxBra= 2 Meth= 1.
 IRaf=       0 NMat=   1 IRICut=       1 DoRegI=T DoRafI=F ISym2E= 0 JSym2E=0.
          Solving linear equations separately, MaxMat=       0.
          There are     1 degrees of freedom in the 1st order CPHF.  IDoFFX=0.
 LinEq1:  Iter=  0 NonCon=     1 RMS=3.17D-03 Max=4.25D-02
 AX will form     1 AO Fock derivatives at one time.
 LinEq1:  Iter=  1 NonCon=     1 RMS=8.09D-04 Max=8.38D-03
 LinEq1:  Iter=  2 NonCon=     1 RMS=2.58D-04 Max=5.24D-03
 LinEq1:  Iter=  3 NonCon=     1 RMS=6.61D-05 Max=1.24D-03
 LinEq1:  Iter=  4 NonCon=     1 RMS=2.65D-05 Max=9.96D-04
 LinEq1:  Iter=  5 NonCon=     1 RMS=1.26D-05 Max=4.29D-04
 LinEq1:  Iter=  6 NonCon=     1 RMS=3.74D-06 Max=6.83D-05
 LinEq1:  Iter=  7 NonCon=     1 RMS=9.05D-07 Max=1.46D-05
 LinEq1:  Iter=  8 NonCon=     1 RMS=2.66D-07 Max=5.25D-06
 LinEq1:  Iter=  9 NonCon=     1 RMS=8.36D-08 Max=9.66D-07
 LinEq1:  Iter= 10 NonCon=     1 RMS=2.57D-08 Max=4.93D-07
 LinEq1:  Iter= 11 NonCon=     1 RMS=4.94D-09 Max=5.43D-08
 LinEq1:  Iter= 12 NonCon=     1 RMS=1.19D-09 Max=1.80D-08
 LinEq1:  Iter= 13 NonCon=     1 RMS=2.37D-10 Max=5.08D-09
 LinEq1:  Iter= 14 NonCon=     1 RMS=5.96D-11 Max=1.30D-09
 LinEq1:  Iter= 15 NonCon=     0 RMS=2.71D-11 Max=7.43D-10
 Linear equations converged to 1.000D-10 1.000D-09 after    15 iterations.
 End of Minotr Frequency-dependent properties file   721 does not exist.
 End of Minotr Frequency-dependent properties file   722 does not exist.
 Leave Link 1002 at Tue Dec  7 16:08:01 2021, MaxMem=  498073600 cpu:     116.4
 (Enter /apps/software//g09/l1102.exe)
 Use density number 2.
 Symmetrizing basis deriv contribution to polar:
 IMax=3 JMax=2 DiffMx= 0.00D+00
 Leave Link 1102 at Tue Dec  7 16:08:01 2021, MaxMem=  498073600 cpu:       0.2
 (Enter /apps/software//g09/l1110.exe)
 Leave Link 1110 at Tue Dec  7 16:08:01 2021, MaxMem=  498073600 cpu:       0.1
 (Enter /apps/software//g09/l1112.exe)
 Leave Link 1112 at Tue Dec  7 16:08:01 2021, MaxMem=  498073600 cpu:       0.0
 (Enter /apps/software//g09/l701.exe)
 Compute integral first derivatives.
 ... and contract with generalized density number  2.
 Leave Link  701 at Tue Dec  7 16:08:01 2021, MaxMem=  498073600 cpu:       1.5
 (Enter /apps/software//g09/l702.exe)
 L702 exits ... SP integral derivatives will be done elsewhere.
 Leave Link  702 at Tue Dec  7 16:08:01 2021, MaxMem=  498073600 cpu:       0.1
 (Enter /apps/software//g09/l703.exe)
 Compute integral first derivatives, UseDBF=F ICtDFT=           0.
 Integral derivatives from FoFDir, PRISM(SPDF).
 Calling FoFJK, ICntrl=      2127 FMM=F ISym2X=0 I1Cent= 0 IOpClX= 0 NMat=1 NMatS=1 NMatT=0.
 FoFCou: FMM=F IPFlag=           0 FMFlag=      100000 FMFlg1=         800
         NFxFlg=           0 DoJE=F BraDBF=F KetDBF=F FulRan=T
         Omega=  0.000000  0.000000  1.000000  0.000000  0.000000 ICntrl=    2127 IOpCl=  0
         NMat0=    1 NMatS0=    1 NMatT0=    0 NMatD0=    1 NMtDS0=    0 NMtDT0=    0
         I1Cent=           0 NGrid=           0.
 Symmetry not used in FoFCou.
 Leave Link  703 at Tue Dec  7 16:08:11 2021, MaxMem=  498073600 cpu:      56.9
 (Enter /apps/software//g09/l716.exe)
 Dipole        = 2.21279729D-01 2.06548583D-04-2.38615349D-02
 Polarizability= 0.00000000D+00 0.00000000D+00 0.00000000D+00
                 0.00000000D+00 0.00000000D+00 0.00000000D+00
 -------------------------------------------------------------------
 Center     Atomic                   Forces (Hartrees/Bohr)
 Number     Number              X              Y              Z
 -------------------------------------------------------------------
      1        6           0.012757826   -0.000807417   -0.000318688
      2        6           0.012764301    0.000784355   -0.000316402
      3        6          -0.003007878    0.001025644   -0.002658228
      4        6          -0.003024283   -0.001034261   -0.002683871
      5        6          -0.009069206    0.008045320    0.003371464
      6        6          -0.009131080   -0.008018995    0.003392488
      7        1          -0.000468194    0.001916643   -0.000734659
      8        1           0.000522497   -0.002085210    0.001983977
      9        1          -0.000472760   -0.001900338   -0.000736183
     10        1           0.000521293    0.002085715    0.001980393
     11        1          -0.000466362    0.000924258   -0.001295714
     12        1          -0.000465646   -0.000929586   -0.001290155
     13        1           0.000782312    0.000153194    0.001780140
     14        1          -0.001013997    0.000223269   -0.002128284
     15        1           0.000788421   -0.000156715    0.001796422
     16        1          -0.001017246   -0.000225876   -0.002142701
 -------------------------------------------------------------------
 Cartesian Forces:  Max     0.012764301 RMS     0.003898841
 Leave Link  716 at Tue Dec  7 16:08:11 2021, MaxMem=  498073600 cpu:       0.1
 (Enter /apps/software//g09/l123.exe)
 IRC-IRC-IRC-IRC-IRC-IRC-IRC-IRC-IRC-IRC-IRC-IRC-IRC-IRC-IRC-IRC-IRC-IRC
 Pt  1 Step number   1 out of a maximum of  50
 Using modified Bulirsch-Stoer corrector interation.
   Using distance weighted interpolants to fit PES.
    Cycle     1 NS=     2
    Cycle     2 NS=     4 Truncation Error =  0.020268024
    Cycle     3 NS=     6 Truncation Error =  0.005380449
    Cycle     4 NS=     8 Truncation Error =  0.006140979
    Cycle     5 NS=    12 Truncation Error =  0.003009235
    Cycle     6 NS=    16 Truncation Error =  0.000946297
    Cycle     7 NS=    24 Truncation Error =  0.000179250
    Cycle     8 NS=    32 Truncation Error =  0.000026904
    Cycle     9 NS=    48 Truncation Error =  0.000002584
    Cycle    10 NS=    64 Truncation Error =  0.000000185
 BS completed in   10 cycles and     216 integration steps.
 SUMMARY OF CORRECTOR INTEGRATION:
   Original End Point Energy  =  -233.850814
   Corrected End Point Energy =  -233.850969
   Old End-Start Dist.        =     0.287852
   New End-Start Dist.        =     0.271780
   New End-Old End Dist.      =     0.077992
 CORRECTOR INTEGRATION CONVERGENCE:
   Recorrection delta-x convergence threshold:    0.010000
   Delta-x Convergence NOT Met
 IRC-IRC-IRC-IRC-IRC-IRC-IRC-IRC-IRC-IRC-IRC-IRC-IRC-IRC-IRC-IRC-IRC-IRC
 Leave Link  123 at Tue Dec  7 16:08:11 2021, MaxMem=  498073600 cpu:       0.3
 (Enter /apps/software//g09/l202.exe)
                          Input orientation:                          
 ---------------------------------------------------------------------
 Center     Atomic      Atomic             Coordinates (Angstroms)
 Number     Number       Type             X           Y           Z
 ---------------------------------------------------------------------
      1          6           0       -0.379281    1.428560    0.495970
      2          6           0       -0.379507   -1.428707    0.496019
      3          6           0       -1.297142    0.700409   -0.261684
      4          6           0       -1.297183   -0.700388   -0.261660
      5          6           0        1.566892    0.702086   -0.247570
      6          6           0        1.567364   -0.701968   -0.247705
      7          1           0       -0.340569    2.509590    0.379410
      8          1           0       -0.071727    1.061235    1.470423
      9          1           0       -0.340949   -2.509740    0.379464
     10          1           0       -0.071570   -1.061337    1.470329
     11          1           0       -1.865813    1.216101   -1.033403
     12          1           0       -1.865958   -1.216035   -1.033333
     13          1           0        2.111050    1.228267    0.532102
     14          1           0        1.469658    1.231054   -1.189966
     15          1           0        2.111491   -1.228073    0.532037
     16          1           0        1.470099   -1.230961   -1.190083
 ---------------------------------------------------------------------
                    Distance matrix (angstroms):
                    1          2          3          4          5
     1  C    0.000000
     2  C    2.857268   0.000000
     3  C    1.395247   2.439119   0.000000
     4  C    2.439051   1.395226   1.400797   0.000000
     5  C    2.206401   2.980213   2.864069   3.189053   0.000000
     6  C    2.980207   2.207166   3.189397   2.864582   1.404054
     7  H    1.087985   3.940216   2.144568   3.410286   2.701589
     8  H    1.085853   2.691469   2.152216   2.757747   2.401158
     9  H    3.940210   1.087982   3.410342   2.144569   3.787988
    10  H    2.691403   1.085848   2.757833   2.152254   2.957261
    11  H    2.143338   3.397535   1.088519   2.142862   3.558821
    12  H    3.397479   2.143288   2.142837   1.088520   4.010121
    13  H    2.498634   3.641935   3.538998   3.995726   1.086676
    14  H    2.509973   3.651888   2.966222   3.499662   1.085067
    15  H    3.641833   2.499324   3.995975   3.539416   2.151718
    16  H    3.651854   2.510594   3.499963   2.966704   2.152759
                    6          7          8          9         10
     6  C    0.000000
     7  H    3.787821   0.000000
     8  H    2.957612   1.833117   0.000000
     9  H    2.702414   5.019331   3.743599   0.000000
    10  H    2.401436   3.743526   2.122572   1.833146   0.000000
    11  H    4.010363   2.448577   3.084132   4.266532   3.830757
    12  H    3.559379   4.266491   3.830668   2.448535   3.084166
    13  H    2.151628   2.770476   2.381777   4.473063   3.299453
    14  H    2.152667   2.715606   3.079347   4.442404   3.835050
    15  H    1.086673   4.472809   3.299688   2.771355   2.382005
    16  H    1.085067   4.442247   3.835321   2.716366   3.079498
                   11         12         13         14         15
    11  H    0.000000
    12  H    2.432136   0.000000
    13  H    4.273920   4.923596   0.000000
    14  H    3.339177   4.139942   1.837637   0.000000
    15  H    4.923773   4.274416   2.456341   3.069943   0.000000
    16  H    4.140166   3.339772   3.069942   2.462016   1.837686
                   16
    16  H    0.000000
 Symmetry turned off by external request.
 Stoichiometry    C6H10
 Framework group  C1[X(C6H10)]
 Deg. of freedom    42
 Full point group                 C1      NOp   1
 Rotational constants (GHZ):      4.3660452      3.5433979      2.2958512
 Leave Link  202 at Tue Dec  7 16:08:11 2021, MaxMem=  498073600 cpu:       0.1
 (Enter /apps/software//g09/l301.exe)
 Standard basis: 6-311++G(d,p) (5D, 7F)
 Ernie: Thresh=  0.10000D-02 Tol=  0.10000D-05 Strict=F.
[...]
 Number     Number                        X           Y           Z
 ---------------------------------------------------------------------
      1          6                   -0.327575    1.371860    0.494184
      2          6                   -0.329183   -1.371040    0.494843
      3          6                   -1.277549    0.690862   -0.301271
      4          6                   -1.278471   -0.689346   -0.300751
      5          6                    1.464043    0.716789   -0.228676
      6          6                    1.462655   -0.717917   -0.228963
      7          1                   -0.342516    2.458044    0.483770
      8          1                   -0.157666    0.949699    1.481258
      9          1                   -0.346014   -2.457198    0.484950
     10          1                   -0.159043   -0.948725    1.481865
     11          1                   -1.784039    1.235113   -1.095738
     12          1                   -1.786556   -1.233436   -1.094251
     13          1                    2.137492    1.217005    0.461235
     14          1                    1.347956    1.193508   -1.195428
     15          1                    2.134915   -1.220435    0.460310
     16          1                    1.343756   -1.194006   -1.195682
 ---------------------------------------------------------------------
   CHANGE IN THE REACTION COORDINATE =    0.28755
   NET REACTION COORDINATE UP TO THIS POINT =    1.73165
  # OF POINTS ALONG THE PATH =  20
  # OF STEPS =   2

 Maximum number of steps reached.
 Calculation of REVERSE path complete.
 Reaction path calculation complete.
 
 Energies reported relative to the TS energy of        -233.849452
 --------------------------------------------------------------------------
    Summary of reaction path following
 --------------------------------------------------------------------------
                        Energy   Rx Coord
   1                   -0.01189  -1.73165
   2                   -0.00849  -1.44410
   3                   -0.00585  -1.15663
   4                   -0.00382  -0.86916
   5                   -0.00227  -0.58176
   6                   -0.00108  -0.29550
   7                   -0.00041  -0.09973
   8                   -0.00022  -0.04472
   9                   -0.00001  -0.00563
  10                   -0.00001  -0.00139
  11                    0.00000   0.00000
  12                   -0.00072   0.12923
  13                   -0.00231   0.39340
  14                   -0.00476   0.68043
  15                   -0.00814   0.96818
  16                   -0.01258   1.25592
  17                   -0.01818   1.54369
  18                   -0.02490   1.83146
  19                   -0.03253   2.11923
  20                   -0.04082   2.40700
  21                   -0.04947   2.69476
 --------------------------------------------------------------------------
 
 Total number of points:                   20
 Total number of gradient calculations:   126
 Total number of Hessian calculations:      1
 IRC-IRC-IRC-IRC-IRC-IRC-IRC-IRC-IRC-IRC-IRC-IRC-IRC-IRC-IRC-IRC-IRC-IRC
 Leave Link  123 at Tue Dec  7 19:22:06 2021, MaxMem=  498073600 cpu:       0.4
 (Enter /apps/software//g09/l202.exe)
                          Input orientation:                          
 ---------------------------------------------------------------------
 Center     Atomic      Atomic             Coordinates (Angstroms)
 Number     Number       Type             X           Y           Z
 ---------------------------------------------------------------------
      1          6           0       -0.328046    1.371459    0.494262
      2          6           0       -0.329658   -1.370632    0.494922
      3          6           0       -1.277394    0.690865   -0.301432
      4          6           0       -1.278317   -0.689343   -0.300910
      5          6           0        1.464115    0.716411   -0.228824
      6          6           0        1.462727   -0.717544   -0.229110
      7          1           0       -0.343462    2.457511    0.484359
      8          1           0       -0.157727    0.948638    1.480825
      9          1           0       -0.346951   -2.456654    0.485534
     10          1           0       -0.159101   -0.947666    1.481435
     11          1           0       -1.783276    1.235178   -1.096171
     12          1           0       -1.785785   -1.233513   -1.094679
     13          1           0        2.136818    1.216745    0.461704
     14          1           0        1.347152    1.193318   -1.195245
     15          1           0        2.134224   -1.220163    0.460795
     16          1           0        1.342949   -1.193806   -1.195498
 ---------------------------------------------------------------------
                    Distance matrix (angstroms):
                    1          2          3          4          5
     1  C    0.000000
     2  C    2.742092   0.000000
     3  C    1.413364   2.404611   0.000000
     4  C    2.404625   1.413314   1.380209   0.000000
     5  C    2.040535   2.845554   2.742589   3.082575   0.000000
     6  C    2.845008   2.040439   3.081738   2.742129   1.433955
     7  H    1.086207   3.828183   2.147262   3.375395   2.609098
     8  H    1.086781   2.525981   2.120505   2.667074   2.367953
     9  H    3.828170   1.086200   3.375192   2.146934   3.722715
    10  H    2.526142   1.086830   2.667204   2.120408   2.885995
    11  H    2.160033   3.381542   1.088027   2.142710   3.401023
    12  H    3.381659   2.160078   2.142646   1.087986   3.887642
    13  H    2.469930   3.574791   3.537764   3.984708   1.086137
    14  H    2.385887   3.498885   2.817730   3.352213   1.084015
    15  H    3.574969   2.468709   3.983987   3.536580   2.162161
    16  H    3.496870   2.384618   3.349259   2.815281   2.144311
                    6          7          8          9         10
     6  C    0.000000
     7  H    3.721872   0.000000
     8  H    2.885465   1.817730   0.000000
     9  H    2.609628   4.914167   3.552805   0.000000
    10  H    2.368385   3.552940   1.896304   1.817733   0.000000
    11  H    3.886058   2.462770   3.060298   4.265495   3.747907
    12  H    3.401215   4.265831   3.747743   2.462395   3.060094
    13  H    2.161735   2.773411   2.524961   4.434359   3.315987
    14  H    2.144333   2.697671   3.079915   4.360883   3.743959
    15  H    1.086050   4.434498   3.316202   2.772319   2.524936
    16  H    1.084010   4.358672   3.742299   2.697483   3.079401
                   11         12         13         14         15
    11  H    0.000000
    12  H    2.468693   0.000000
    13  H    4.218347   4.879848   0.000000
    14  H    3.132275   3.964204   1.835647   0.000000
    15  H    4.878488   4.217363   2.436909   3.030980   0.000000
    16  H    3.960191   3.130610   3.031057   2.387128   1.835788
                   16
    16  H    0.000000
 Symmetry turned off by external request.
 Stoichiometry    C6H10
 Framework group  C1[X(C6H10)]
 Deg. of freedom    42
 Full point group                 C1      NOp   1
 Rotational constants (GHZ):      4.5237998      3.8100127      2.4709916
 Leave Link  202 at Tue Dec  7 19:22:06 2021, MaxMem=  498073600 cpu:       0.0
 (Enter /apps/software//g09/l601.exe)
 Copying SCF densities to generalized density rwf, IOpCl= 0 IROHF=0.

 **********************************************************************

            Population analysis using the SCF density.

 **********************************************************************

 Alpha  occ. eigenvalues --  -11.23959 -11.23863 -11.23725 -11.23721 -11.22007
 Alpha  occ. eigenvalues --  -11.21874  -1.10164  -1.01026  -0.97141  -0.85177
 Alpha  occ. eigenvalues --   -0.79862  -0.70740  -0.67260  -0.64005  -0.58123
 Alpha  occ. eigenvalues --   -0.56024  -0.55259  -0.51970  -0.50521  -0.48820
 Alpha  occ. eigenvalues --   -0.48023  -0.32963  -0.30300
 Alpha virt. eigenvalues --    0.04476   0.05056   0.05439   0.06141   0.07194
 Alpha virt. eigenvalues --    0.07578   0.07632   0.08326   0.09785   0.11015
 Alpha virt. eigenvalues --    0.12651   0.13375   0.14423   0.16574   0.16882
 Alpha virt. eigenvalues --    0.16996   0.17071   0.18704   0.18957   0.19214
 Alpha virt. eigenvalues --    0.19842   0.20154   0.20655   0.21478   0.21715
 Alpha virt. eigenvalues --    0.22025   0.22571   0.22616   0.23925   0.24567
 Alpha virt. eigenvalues --    0.24788   0.25127   0.25434   0.25548   0.29242
 Alpha virt. eigenvalues --    0.32010   0.32848   0.33979   0.35912   0.37686
 Alpha virt. eigenvalues --    0.40551   0.42218   0.42686   0.42980   0.44320
 Alpha virt. eigenvalues --    0.46719   0.47155   0.48413   0.51392   0.56628
 Alpha virt. eigenvalues --    0.58457   0.58797   0.61017   0.61921   0.62607
 Alpha virt. eigenvalues --    0.67660   0.68958   0.73252   0.73559   0.77524
 Alpha virt. eigenvalues --    0.78855   0.79229   0.82418   0.82532   0.86005
 Alpha virt. eigenvalues --    0.87040   0.87648   0.90123   0.91177   0.93004
 Alpha virt. eigenvalues --    0.94303   0.94497   0.95978   0.96882   0.98343
 Alpha virt. eigenvalues --    0.99512   1.00021   1.01543   1.04607   1.06079
 Alpha virt. eigenvalues --    1.11713   1.13512   1.16654   1.22561   1.31036
 Alpha virt. eigenvalues --    1.32106   1.41821   1.42461   1.47277   1.50287
 Alpha virt. eigenvalues --    1.51327   1.55839   1.57273   1.60261   1.70900
 Alpha virt. eigenvalues --    1.72793   1.76263   1.79709   1.80490   1.85598
 Alpha virt. eigenvalues --    1.87638   1.88729   1.89412   1.91970   1.92667
 Alpha virt. eigenvalues --    1.94552   1.96053   1.98729   1.99596   2.02336
 Alpha virt. eigenvalues --    2.04518   2.05519   2.10129   2.12002   2.12391
 Alpha virt. eigenvalues --    2.14407   2.14766   2.19293   2.20063   2.25345
 Alpha virt. eigenvalues --    2.27925   2.29504   2.35817   2.40763   2.43250
 Alpha virt. eigenvalues --    2.47497   2.47957   2.49690   2.55451   2.58411
 Alpha virt. eigenvalues --    2.59432   2.65136   2.68847   2.77714   2.79600
 Alpha virt. eigenvalues --    2.82332   2.83490   2.86997   2.90301   2.93138
 Alpha virt. eigenvalues --    2.94746   2.97171   2.99721   3.02149   3.03842
 Alpha virt. eigenvalues --    3.04707   3.08416   3.10684   3.15204   3.16203
 Alpha virt. eigenvalues --    3.16258   3.21979   3.23189   3.27365   3.27741
 Alpha virt. eigenvalues --    3.36509   3.39822   3.58933   3.61381   3.67523
 Alpha virt. eigenvalues --    3.70287   3.75424   3.84474   3.89349   3.95477
 Alpha virt. eigenvalues --    4.01427   4.20110   4.24836   4.35253   4.47991
 Alpha virt. eigenvalues --    4.48833   4.58414   4.83455  24.87909  24.99055
 Alpha virt. eigenvalues --   25.15626  25.17693  25.23460  25.32179
          Condensed to atoms (all electrons):
              1          2          3          4          5          6
     1  C    5.599167  -0.310169   0.100498   0.092737   0.115137   0.068983
     2  C   -0.310169   5.600628   0.092572   0.100164   0.068798   0.115451
     3  C    0.100498   0.092572   5.375968   0.304690  -0.141826   0.031391
     4  C    0.092737   0.100164   0.304690   5.376188   0.032032  -0.142046
     5  C    0.115137   0.068798  -0.141826   0.032032   5.467798   0.110375
     6  C    0.068983   0.115451   0.031391  -0.142046   0.110375   5.467448
     7  H    0.389820   0.009129   0.002773  -0.019620  -0.021006  -0.003271
     8  H    0.478370  -0.028948  -0.114729   0.052282  -0.098613   0.004031
     9  H    0.009186   0.389749  -0.019680   0.002758  -0.003264  -0.020927
    10  H   -0.029120   0.478329   0.052465  -0.114742   0.004039  -0.098706
    11  H   -0.023920   0.004561   0.444026  -0.080100  -0.017467   0.015177
    12  H    0.004477  -0.024034  -0.080078   0.444166   0.015113  -0.017473
    13  H   -0.043807   0.009690  -0.006628   0.004872   0.438126  -0.056337
    14  H   -0.072815   0.028272  -0.058037   0.048340   0.487782  -0.089998
    15  H    0.009860  -0.044101   0.004778  -0.006566  -0.056261   0.438148
    16  H    0.028296  -0.072948   0.048500  -0.058188  -0.090142   0.487878
              7          8          9         10         11         12
     1  C    0.389820   0.478370   0.009186  -0.029120  -0.023920   0.004477
     2  C    0.009129  -0.028948   0.389749   0.478329   0.004561  -0.024034
     3  C    0.002773  -0.114729  -0.019680   0.052465   0.444026  -0.080078
     4  C   -0.019620   0.052282   0.002758  -0.114742  -0.080100   0.444166
     5  C   -0.021006  -0.098613  -0.003264   0.004039  -0.017467   0.015113
     6  C   -0.003271   0.004031  -0.020927  -0.098706   0.015177  -0.017473
     7  H    0.474099  -0.009950   0.001092   0.000278  -0.000967  -0.000627
     8  H   -0.009950   0.574663   0.000265  -0.007438   0.002528  -0.000589
     9  H    0.001092   0.000265   0.474114  -0.009935  -0.000628  -0.000948
    10  H    0.000278  -0.007438  -0.009935   0.574660  -0.000610   0.002522
    11  H   -0.000967   0.002528  -0.000628  -0.000610   0.511999   0.001177
    12  H   -0.000627  -0.000589  -0.000948   0.002522   0.001177   0.511920
    13  H    0.001326   0.000900   0.000892   0.001328  -0.001262   0.000757
    14  H    0.000624   0.007813   0.000870  -0.003297  -0.003662   0.001648
    15  H    0.000908   0.001288   0.001311   0.000921   0.000753  -0.001252
    16  H    0.000868  -0.003288   0.000635   0.007828   0.001647  -0.003694
             13         14         15         16
     1  C   -0.043807  -0.072815   0.009860   0.028296
     2  C    0.009690   0.028272  -0.044101  -0.072948
     3  C   -0.006628  -0.058037   0.004778   0.048500
     4  C    0.004872   0.048340  -0.006566  -0.058188
     5  C    0.438126   0.487782  -0.056261  -0.090142
     6  C   -0.056337  -0.089998   0.438148   0.487878
     7  H    0.001326   0.000624   0.000908   0.000868
     8  H    0.000900   0.007813   0.001288  -0.003288
     9  H    0.000892   0.000870   0.001311   0.000635
    10  H    0.001328  -0.003297   0.000921   0.007828
    11  H   -0.001262  -0.003662   0.000753   0.001647
    12  H    0.000757   0.001648  -0.001252  -0.003694
    13  H    0.507125  -0.013894   0.007659  -0.003335
    14  H   -0.013894   0.534692  -0.003389  -0.013657
    15  H    0.007659  -0.003389   0.506976  -0.013810
    16  H   -0.003335  -0.013657  -0.013810   0.534839
 Mulliken atomic charges:
              1
     1  C   -0.416701
     2  C   -0.417142
     3  C   -0.036684
     4  C   -0.036966
     5  C   -0.310621
     6  C   -0.310122
     7  H    0.174525
     8  H    0.141415
     9  H    0.174512
    10  H    0.141477
    11  H    0.146748
    12  H    0.146916
    13  H    0.152588
    14  H    0.148708
    15  H    0.152777
    16  H    0.148571
 Sum of Mulliken atomic charges =   0.00000
 Mulliken charges with hydrogens summed into heavy atoms:
              1
     1  C   -0.100761
     2  C   -0.101153
     3  C    0.110064
     4  C    0.109949
     5  C   -0.009325
     6  C   -0.008774
 Sum of Mulliken charges with hydrogens summed into heavy atoms =   0.00000
 APT atomic charges:
              1
     1  C   -0.780724
     2  C   -0.780417
     3  C   -0.366011
     4  C   -0.367060
     5  C   -0.793486
     6  C   -0.792088
     7  H    0.507836
     8  H    0.241832
     9  H    0.507830
    10  H    0.241959
    11  H    0.436411
    12  H    0.436708
    13  H    0.439654
    14  H    0.314449
    15  H    0.439647
    16  H    0.313461
 Sum of APT charges=   0.00000
 APT Atomic charges with hydrogens summed into heavy atoms:
              1
     1  C   -0.031056
     2  C   -0.030628
     3  C    0.070400
     4  C    0.069648
     5  C   -0.039384
     6  C   -0.038980
     7  H    0.000000
     8  H    0.000000
     9  H    0.000000
    10  H    0.000000
    11  H    0.000000
    12  H    0.000000
    13  H    0.000000
    14  H    0.000000
    15  H    0.000000
    16  H    0.000000
 Sum of APT charges=   0.00000
 Electronic spatial extent (au):  <R**2>=            581.7018
 Charge=              0.0000 electrons
 Dipole moment (field-independent basis, Debye):
    X=              0.8414    Y=             -0.0014    Z=             -0.0876  Tot=              0.8459
 Quadrupole moment (field-independent basis, Debye-Ang):
   XX=            -42.6341   YY=            -36.9978   ZZ=            -38.1966
   XY=              0.0075   XZ=              2.7924   YZ=             -0.0033
 Traceless Quadrupole moment (field-independent basis, Debye-Ang):
   XX=             -3.3579   YY=              2.2783   ZZ=              1.0796
   XY=              0.0075   XZ=              2.7924   YZ=             -0.0033
 Octapole moment (field-independent basis, Debye-Ang**2):
  XXX=              4.4338  YYY=             -0.0201  ZZZ=              0.4031  XYY=             -0.7466
  XXY=             -0.0167  XXZ=             -1.2604  XZZ=              0.1033  YZZ=             -0.0021
  YYZ=             -1.3848  XYZ=             -0.0044
 Hexadecapole moment (field-independent basis, Debye-Ang**3):
 XXXX=           -415.2282 YYYY=           -306.9187 ZZZZ=           -112.0991 XXXY=              0.0305
 XXXZ=             19.2659 YYYX=              0.0044 YYYZ=              0.0034 ZZZX=              2.9669
 ZZZY=              0.0173 XXYY=           -118.5474 XXZZ=            -81.7693 YYZZ=            -72.8441
 XXYZ=             -0.0036 YYXZ=              5.2969 ZZXY=             -0.0022
 N-N= 2.291853093731D+02 E-N=-9.998432114039D+02  KE= 2.325015438728D+02
  Exact polarizability:   0.000   0.000   0.000   0.000   0.000   0.000
 Approx polarizability:  87.725   0.002  78.440  -2.874  -0.005  58.119
 No NMR shielding tensors so no spin-rotation constants.
 Leave Link  601 at Tue Dec  7 19:22:07 2021, MaxMem=  498073600 cpu:       2.0
 (Enter /apps/software//g09/l716.exe)
 Dipole        = 2.96568242D-01-4.51857687D-04-3.02416998D-02
 Polarizability= 0.00000000D+00 0.00000000D+00 0.00000000D+00
                 0.00000000D+00 0.00000000D+00 0.00000000D+00
 -------------------------------------------------------------------
 Center     Atomic                   Forces (Hartrees/Bohr)
 Number     Number              X              Y              Z
 -------------------------------------------------------------------
      1        6           0.025836905   -0.006881977   -0.000412229
      2        6           0.025754455    0.006895515   -0.000324273
      3        6          -0.001659737   -0.000854859   -0.009788890
      4        6          -0.001726094    0.000926445   -0.009790567
      5        6          -0.030149920    0.015485058    0.008973029
      6        6          -0.030279177   -0.015534537    0.008909336
      7        1           0.004105684    0.001547044   -0.002045808
      8        1           0.000857993    0.003670018    0.002830598
      9        1           0.004154694   -0.001566624   -0.002047542
     10        1           0.000881191   -0.003677980    0.002801928
     11        1          -0.003831614   -0.000460044    0.001356058
     12        1          -0.003793726    0.000450510    0.001309912
     13        1           0.000439901    0.001554824    0.000206048
     14        1           0.004400316    0.002563133   -0.001080247
     15        1           0.000525516   -0.001537869    0.000200395
     16        1           0.004483612   -0.002578657   -0.001097748
 -------------------------------------------------------------------
 Cartesian Forces:  Max     0.030279177 RMS     0.009439523
 Leave Link  716 at Tue Dec  7 19:22:07 2021, MaxMem=  498073600 cpu:       0.1
 (Enter /apps/software//g09/l9999.exe)

 This type of calculation cannot be archived.


 ART, GLORY, FREEDOM FAIL, BUT NATURE STILL IS FAIR.

                                           -- BYRON
 Job cpu time:  0 days 22 hours 30 minutes 21.7 seconds.
 File lengths (MBytes):  RWF=   6931 Int=      0 D2E=      0 Chk=      7 Scr=      1
 Normal termination of Gaussian 09 at Tue Dec  7 19:22:08 2021.
