X=CHO                                                                   
SP        RMP2-FC                                                     6-311++G(d,p)       
Number of atoms                            I               14
Info1-9                                    I   N=           9
          24          23           0           0           0         110
           1           2           1
Charge                                     I                0
Multiplicity                               I                1
Number of electrons                        I               56
Number of alpha electrons                  I               28
Number of beta electrons                   I               28
Number of basis functions                  I              218
Number of independent functions            I              218
Number of point charges in /Mol/           I                0
Number of translation vectors              I                0
Atomic numbers                             I   N=          14
           6           6           6           6           6           6
           6           1           1           1           1           1
           8           1
Nuclear charges                            R   N=          14
  6.00000000E+00  6.00000000E+00  6.00000000E+00  6.00000000E+00  6.00000000E+00
  6.00000000E+00  6.00000000E+00  1.00000000E+00  1.00000000E+00  1.00000000E+00
  1.00000000E+00  1.00000000E+00  8.00000000E+00  1.00000000E+00
Current cartesian coordinates              R   N=          42
  3.05178487E+00 -2.32493195E+00  7.73867797E-16  2.50932009E+00  2.49965414E-01
  3.89318243E-16  1.47378902E-16  1.08138822E+00 -1.23561336E-16 -1.97383217E+00
 -6.84906670E-01 -2.50445735E-16 -1.43081370E+00 -3.25192955E+00  1.33296272E-16
  1.08076083E+00 -4.07267729E+00  6.45331534E-16 -5.38016368E-01  3.82739273E+00
 -5.26921094E-16 -3.90490929E+00 -3.65284061E-03 -6.49871325E-16 -2.95299755E+00
 -4.62263862E+00  3.64250145E-17  1.49688420E+00 -6.07892016E+00  9.43865850E-16
  4.99622614E+00 -2.96798686E+00  1.17115426E-15  4.03032286E+00  1.62676885E+00
  4.85296461E-16 -2.62868086E+00  4.75639532E+00 -9.81231150E-16  1.16870113E+00
  5.04945972E+00 -3.82335146E-16
Force Field                                I                0
Int Atom Types                             I   N=          14
           0           0           0           0           0           0
           0           0           0           0           0           0
           0           0
MM charges                                 R   N=          14
  0.00000000E+00  0.00000000E+00  0.00000000E+00  0.00000000E+00  0.00000000E+00
  0.00000000E+00  0.00000000E+00  0.00000000E+00  0.00000000E+00  0.00000000E+00
  0.00000000E+00  0.00000000E+00  0.00000000E+00  0.00000000E+00
Integer atomic weights                     I   N=          14
          12          12          12          12          12          12
          12           1           1           1           1           1
          16           1
Real atomic weights                        R   N=          14
  1.20000000E+01  1.20000000E+01  1.20000000E+01  1.20000000E+01  1.20000000E+01
  1.20000000E+01  1.20000000E+01  1.00782504E+00  1.00782504E+00  1.00782504E+00
  1.00782504E+00  1.00782504E+00  1.59949146E+01  1.00782504E+00
Atom fragment info                         I   N=          14
           0           0           0           0           0           0
           0           0           0           0           0           0
           0           0
Atom residue num                           I   N=          14
           0           0           0           0           0           0
           0           0           0           0           0           0
           0           0
Nuclear spins                              I   N=          14
           0           0           0           0           0           0
           0           1           1           1           1           1
           0           1
Nuclear ZEff                               R   N=          14
 -3.60000000E+00 -3.60000000E+00 -3.60000000E+00 -3.60000000E+00 -3.60000000E+00
 -3.60000000E+00 -3.60000000E+00 -1.00000000E+00 -1.00000000E+00 -1.00000000E+00
 -1.00000000E+00 -1.00000000E+00 -5.60000000E+00 -1.00000000E+00
Nuclear QMom                               R   N=          14
  0.00000000E+00  0.00000000E+00  0.00000000E+00  0.00000000E+00  0.00000000E+00
  0.00000000E+00  0.00000000E+00  0.00000000E+00  0.00000000E+00  0.00000000E+00
  0.00000000E+00  0.00000000E+00  0.00000000E+00  0.00000000E+00
Nuclear GFac                               R   N=          14
  0.00000000E+00  0.00000000E+00  0.00000000E+00  0.00000000E+00  0.00000000E+00
  0.00000000E+00  0.00000000E+00  2.79284600E+00  2.79284600E+00  2.79284600E+00
  2.79284600E+00  2.79284600E+00  0.00000000E+00  2.79284600E+00
MicOpt                                     I   N=          14
          -1          -1          -1          -1          -1          -1
          -1          -1          -1          -1          -1          -1
          -1          -1
Number of contracted shells                I               78
Number of primitive shells                 I              146
Pure/Cartesian d shells                    I                0
Pure/Cartesian f shells                    I                0
Highest angular momentum                   I                2
Largest degree of contraction              I                6
Shell types                                I   N=          78
           0          -1          -1          -1          -1          -2
           0          -1          -1          -1          -1          -2
           0          -1          -1          -1          -1          -2
           0          -1          -1          -1          -1          -2
           0          -1          -1          -1          -1          -2
           0          -1          -1          -1          -1          -2
           0          -1          -1          -1          -1          -2
           0           0           0           0           1           0
           0           0           0           1           0           0
           0           0           1           0           0           0
           0           1           0           0           0           0
           1           0          -1          -1          -1          -1
          -2           0           0           0           0           1
Number of primitives per shell             I   N=          78
           6           3           1           1           1           1
           6           3           1           1           1           1
           6           3           1           1           1           1
           6           3           1           1           1           1
           6           3           1           1           1           1
           6           3           1           1           1           1
           6           3           1           1           1           1
           3           1           1           1           1           3
           1           1           1           1           3           1
           1           1           1           3           1           1
           1           1           3           1           1           1
           1           6           3           1           1           1
           1           3           1           1           1           1
Shell to atom map                          I   N=          78
           1           1           1           1           1           1
           2           2           2           2           2           2
           3           3           3           3           3           3
           4           4           4           4           4           4
           5           5           5           5           5           5
           6           6           6           6           6           6
           7           7           7           7           7           7
           8           8           8           8           8           9
           9           9           9           9          10          10
          10          10          10          11          11          11
          11          11          12          12          12          12
          12          13          13          13          13          13
          13          14          14          14          14          14
Primitive exponents                        R   N=         146
  4.56324000E+03  6.82024000E+02  1.54973000E+02  4.44553000E+01  1.30290000E+01
  1.82773000E+00  2.09642000E+01  4.80331000E+00  1.45933000E+00  4.83456000E-01
  1.45585000E-01  4.38000000E-02  6.26000000E-01  4.56324000E+03  6.82024000E+02
  1.54973000E+02  4.44553000E+01  1.30290000E+01  1.82773000E+00  2.09642000E+01
  4.80331000E+00  1.45933000E+00  4.83456000E-01  1.45585000E-01  4.38000000E-02
  6.26000000E-01  4.56324000E+03  6.82024000E+02  1.54973000E+02  4.44553000E+01
  1.30290000E+01  1.82773000E+00  2.09642000E+01  4.80331000E+00  1.45933000E+00
  4.83456000E-01  1.45585000E-01  4.38000000E-02  6.26000000E-01  4.56324000E+03
  6.82024000E+02  1.54973000E+02  4.44553000E+01  1.30290000E+01  1.82773000E+00
  2.09642000E+01  4.80331000E+00  1.45933000E+00  4.83456000E-01  1.45585000E-01
  4.38000000E-02  6.26000000E-01  4.56324000E+03  6.82024000E+02  1.54973000E+02
  4.44553000E+01  1.30290000E+01  1.82773000E+00  2.09642000E+01  4.80331000E+00
  1.45933000E+00  4.83456000E-01  1.45585000E-01  4.38000000E-02  6.26000000E-01
  4.56324000E+03  6.82024000E+02  1.54973000E+02  4.44553000E+01  1.30290000E+01
  1.82773000E+00  2.09642000E+01  4.80331000E+00  1.45933000E+00  4.83456000E-01
  1.45585000E-01  4.38000000E-02  6.26000000E-01  4.56324000E+03  6.82024000E+02
  1.54973000E+02  4.44553000E+01  1.30290000E+01  1.82773000E+00  2.09642000E+01
  4.80331000E+00  1.45933000E+00  4.83456000E-01  1.45585000E-01  4.38000000E-02
  6.26000000E-01  3.38650000E+01  5.09479000E+00  1.15879000E+00  3.25840000E-01
  1.02741000E-01  3.60000000E-02  7.50000000E-01  3.38650000E+01  5.09479000E+00
  1.15879000E+00  3.25840000E-01  1.02741000E-01  3.60000000E-02  7.50000000E-01
  3.38650000E+01  5.09479000E+00  1.15879000E+00  3.25840000E-01  1.02741000E-01
  3.60000000E-02  7.50000000E-01  3.38650000E+01  5.09479000E+00  1.15879000E+00
  3.25840000E-01  1.02741000E-01  3.60000000E-02  7.50000000E-01  3.38650000E+01
  5.09479000E+00  1.15879000E+00  3.25840000E-01  1.02741000E-01  3.60000000E-02
  7.50000000E-01  8.58850000E+03  1.29723000E+03  2.99296000E+02  8.73771000E+01
  2.56789000E+01  3.74004000E+00  4.21175000E+01  9.62837000E+00  2.85332000E+00
  9.05661000E-01  2.55611000E-01  8.45000000E-02  1.29200000E+00  3.38650000E+01
  5.09479000E+00  1.15879000E+00  3.25840000E-01  1.02741000E-01  3.60000000E-02
  7.50000000E-01
Contraction coefficients                   R   N=         146
  1.96665025E-03  1.52306019E-02  7.61269097E-02  2.60801033E-01  6.16462078E-01
  2.21006028E-01  1.14660081E-01  9.19999648E-01 -3.03068213E-03  1.00000000E+00
  1.00000000E+00  1.00000000E+00  1.00000000E+00  1.96665025E-03  1.52306019E-02
  7.61269097E-02  2.60801033E-01  6.16462078E-01  2.21006028E-01  1.14660081E-01
  9.19999648E-01 -3.03068213E-03  1.00000000E+00  1.00000000E+00  1.00000000E+00
  1.00000000E+00  1.96665025E-03  1.52306019E-02  7.61269097E-02  2.60801033E-01
  6.16462078E-01  2.21006028E-01  1.14660081E-01  9.19999648E-01 -3.03068213E-03
  1.00000000E+00  1.00000000E+00  1.00000000E+00  1.00000000E+00  1.96665025E-03
  1.52306019E-02  7.61269097E-02  2.60801033E-01  6.16462078E-01  2.21006028E-01
  1.14660081E-01  9.19999648E-01 -3.03068213E-03  1.00000000E+00  1.00000000E+00
  1.00000000E+00  1.00000000E+00  1.96665025E-03  1.52306019E-02  7.61269097E-02
  2.60801033E-01  6.16462078E-01  2.21006028E-01  1.14660081E-01  9.19999648E-01
 -3.03068213E-03  1.00000000E+00  1.00000000E+00  1.00000000E+00  1.00000000E+00
  1.96665025E-03  1.52306019E-02  7.61269097E-02  2.60801033E-01  6.16462078E-01
  2.21006028E-01  1.14660081E-01  9.19999648E-01 -3.03068213E-03  1.00000000E+00
  1.00000000E+00  1.00000000E+00  1.00000000E+00  1.96665025E-03  1.52306019E-02
  7.61269097E-02  2.60801033E-01  6.16462078E-01  2.21006028E-01  1.14660081E-01
  9.19999648E-01 -3.03068213E-03  1.00000000E+00  1.00000000E+00  1.00000000E+00
  1.00000000E+00  2.54938145E-02  1.90373109E-01  8.52161486E-01  1.00000000E+00
  1.00000000E+00  1.00000000E+00  1.00000000E+00  2.54938145E-02  1.90373109E-01
  8.52161486E-01  1.00000000E+00  1.00000000E+00  1.00000000E+00  1.00000000E+00
  2.54938145E-02  1.90373109E-01  8.52161486E-01  1.00000000E+00  1.00000000E+00
  1.00000000E+00  1.00000000E+00  2.54938145E-02  1.90373109E-01  8.52161486E-01
  1.00000000E+00  1.00000000E+00  1.00000000E+00  1.00000000E+00  2.54938145E-02
  1.90373109E-01  8.52161486E-01  1.00000000E+00  1.00000000E+00  1.00000000E+00
  1.00000000E+00  1.89515008E-03  1.43859006E-02  7.07320031E-02  2.40001011E-01
  5.94797026E-01  2.80802012E-01  1.13889012E-01  9.20811101E-01 -3.27447036E-03
  1.00000000E+00  1.00000000E+00  1.00000000E+00  1.00000000E+00  2.54938145E-02
  1.90373109E-01  8.52161486E-01  1.00000000E+00  1.00000000E+00  1.00000000E+00
  1.00000000E+00
P(S=P) Contraction coefficients            R   N=         146
  0.00000000E+00  0.00000000E+00  0.00000000E+00  0.00000000E+00  0.00000000E+00
  0.00000000E+00  4.02486927E-02  2.37593957E-01  8.15853851E-01  1.00000000E+00
  1.00000000E+00  1.00000000E+00  0.00000000E+00  0.00000000E+00  0.00000000E+00
  0.00000000E+00  0.00000000E+00  0.00000000E+00  0.00000000E+00  4.02486927E-02
  2.37593957E-01  8.15853851E-01  1.00000000E+00  1.00000000E+00  1.00000000E+00
  0.00000000E+00  0.00000000E+00  0.00000000E+00  0.00000000E+00  0.00000000E+00
  0.00000000E+00  0.00000000E+00  4.02486927E-02  2.37593957E-01  8.15853851E-01
  1.00000000E+00  1.00000000E+00  1.00000000E+00  0.00000000E+00  0.00000000E+00
  0.00000000E+00  0.00000000E+00  0.00000000E+00  0.00000000E+00  0.00000000E+00
  4.02486927E-02  2.37593957E-01  8.15853851E-01  1.00000000E+00  1.00000000E+00
  1.00000000E+00  0.00000000E+00  0.00000000E+00  0.00000000E+00  0.00000000E+00
  0.00000000E+00  0.00000000E+00  0.00000000E+00  4.02486927E-02  2.37593957E-01
  8.15853851E-01  1.00000000E+00  1.00000000E+00  1.00000000E+00  0.00000000E+00
  0.00000000E+00  0.00000000E+00  0.00000000E+00  0.00000000E+00  0.00000000E+00
  0.00000000E+00  4.02486927E-02  2.37593957E-01  8.15853851E-01  1.00000000E+00
  1.00000000E+00  1.00000000E+00  0.00000000E+00  0.00000000E+00  0.00000000E+00
  0.00000000E+00  0.00000000E+00  0.00000000E+00  0.00000000E+00  4.02486927E-02
  2.37593957E-01  8.15853851E-01  1.00000000E+00  1.00000000E+00  1.00000000E+00
  0.00000000E+00  0.00000000E+00  0.00000000E+00  0.00000000E+00  0.00000000E+00
  0.00000000E+00  0.00000000E+00  0.00000000E+00  0.00000000E+00  0.00000000E+00
  0.00000000E+00  0.00000000E+00  0.00000000E+00  0.00000000E+00  0.00000000E+00
  0.00000000E+00  0.00000000E+00  0.00000000E+00  0.00000000E+00  0.00000000E+00
  0.00000000E+00  0.00000000E+00  0.00000000E+00  0.00000000E+00  0.00000000E+00
  0.00000000E+00  0.00000000E+00  0.00000000E+00  0.00000000E+00  0.00000000E+00
  0.00000000E+00  0.00000000E+00  0.00000000E+00  0.00000000E+00  0.00000000E+00
  0.00000000E+00  0.00000000E+00  0.00000000E+00  0.00000000E+00  0.00000000E+00
  0.00000000E+00  0.00000000E+00  3.65113974E-02  2.37152983E-01  8.19701941E-01
  1.00000000E+00  1.00000000E+00  1.00000000E+00  0.00000000E+00  0.00000000E+00
  0.00000000E+00  0.00000000E+00  0.00000000E+00  0.00000000E+00  0.00000000E+00
  0.00000000E+00
Coordinates of each shell                  R   N=         234
  3.05178477E+00 -2.32493201E+00  4.65753033E-32  3.05178477E+00 -2.32493201E+00
  4.65753033E-32  3.05178477E+00 -2.32493201E+00  4.65753033E-32  3.05178477E+00
 -2.32493201E+00  4.65753033E-32  3.05178477E+00 -2.32493201E+00  4.65753033E-32
  3.05178477E+00 -2.32493201E+00  4.65753033E-32  2.50932006E+00  2.49965369E-01
  6.49405766E-32  2.50932006E+00  2.49965369E-01  6.49405766E-32  2.50932006E+00
  2.49965369E-01  6.49405766E-32  2.50932006E+00  2.49965369E-01  6.49405766E-32
  2.50932006E+00  2.49965369E-01  6.49405766E-32  2.50932006E+00  2.49965369E-01
  6.49405766E-32 -7.15602721E-24  1.08138825E+00  1.33291393E-32 -7.15602721E-24
  1.08138825E+00  1.33291393E-32 -7.15602721E-24  1.08138825E+00  1.33291393E-32
 -7.15602721E-24  1.08138825E+00  1.33291393E-32 -7.15602721E-24  1.08138825E+00
  1.33291393E-32 -7.15602721E-24  1.08138825E+00  1.33291393E-32 -1.97383223E+00
 -6.84906575E-01 -5.71008465E-32 -1.97383223E+00 -6.84906575E-01 -5.71008465E-32
 -1.97383223E+00 -6.84906575E-01 -5.71008465E-32 -1.97383223E+00 -6.84906575E-01
 -5.71008465E-32 -1.97383223E+00 -6.84906575E-01 -5.71008465E-32 -1.97383223E+00
 -6.84906575E-01 -5.71008465E-32 -1.43081384E+00 -3.25192947E+00 -7.53554097E-32
 -1.43081384E+00 -3.25192947E+00 -7.53554097E-32 -1.43081384E+00 -3.25192947E+00
 -7.53554097E-32 -1.43081384E+00 -3.25192947E+00 -7.53554097E-32 -1.43081384E+00
 -3.25192947E+00 -7.53554097E-32 -1.43081384E+00 -3.25192947E+00 -7.53554097E-32
  1.08076067E+00 -4.07267729E+00 -2.35568158E-32  1.08076067E+00 -4.07267729E+00
 -2.35568158E-32  1.08076067E+00 -4.07267729E+00 -2.35568158E-32  1.08076067E+00
 -4.07267729E+00 -2.35568158E-32  1.08076067E+00 -4.07267729E+00 -2.35568158E-32
  1.08076067E+00 -4.07267729E+00 -2.35568158E-32 -5.38016283E-01  3.82739278E+00
  3.39131329E-32 -5.38016283E-01  3.82739278E+00  3.39131329E-32 -5.38016283E-01
  3.82739278E+00  3.39131329E-32 -5.38016283E-01  3.82739278E+00  3.39131329E-32
 -5.38016283E-01  3.82739278E+00  3.39131329E-32 -5.38016283E-01  3.82739278E+00
  3.39131329E-32 -3.90490933E+00 -3.65268502E-03 -9.63084699E-32 -3.90490933E+00
 -3.65268502E-03 -9.63084699E-32 -3.90490933E+00 -3.65268502E-03 -9.63084699E-32
 -3.90490933E+00 -3.65268502E-03 -9.63084699E-32 -3.90490933E+00 -3.65268502E-03
 -9.63084699E-32 -2.95299773E+00 -4.62263849E+00 -1.29775433E-31 -2.95299773E+00
 -4.62263849E+00 -1.29775433E-31 -2.95299773E+00 -4.62263849E+00 -1.29775433E-31
 -2.95299773E+00 -4.62263849E+00 -1.29775433E-31 -2.95299773E+00 -4.62263849E+00
 -1.29775433E-31  1.49688397E+00 -6.07892017E+00 -3.80274372E-32  1.49688397E+00
 -6.07892017E+00 -3.80274372E-32  1.49688397E+00 -6.07892017E+00 -3.80274372E-32
  1.49688397E+00 -6.07892017E+00 -3.80274372E-32  1.49688397E+00 -6.07892017E+00
 -3.80274372E-32  4.99622601E+00 -2.96798698E+00  8.65832164E-32  4.99622601E+00
 -2.96798698E+00  8.65832164E-32  4.99622601E+00 -2.96798698E+00  8.65832164E-32
  4.99622601E+00 -2.96798698E+00  8.65832164E-32  4.99622601E+00 -2.96798698E+00
  8.65832164E-32  4.03032288E+00  1.62676876E+00  1.19406603E-31  4.03032288E+00
  1.62676876E+00  1.19406603E-31  4.03032288E+00  1.62676876E+00  1.19406603E-31
  4.03032288E+00  1.62676876E+00  1.19406603E-31  4.03032288E+00  1.62676876E+00
  1.19406603E-31 -2.62868075E+00  4.75639544E+00 -6.17488334E-33 -2.62868075E+00
  4.75639544E+00 -6.17488334E-33 -2.62868075E+00  4.75639544E+00 -6.17488334E-33
 -2.62868075E+00  4.75639544E+00 -6.17488334E-33 -2.62868075E+00  4.75639544E+00
 -6.17488334E-33 -2.62868075E+00  4.75639544E+00 -6.17488334E-33  1.16870125E+00
  5.04945972E+00  9.10501065E-32  1.16870125E+00  5.04945972E+00  9.10501065E-32
  1.16870125E+00  5.04945972E+00  9.10501065E-32  1.16870125E+00  5.04945972E+00
  9.10501065E-32  1.16870125E+00  5.04945972E+00  9.10501065E-32
Constraint Structure                       R   N=          42
  3.05178477E+00 -2.32493201E+00  4.65753033E-32  2.50932006E+00  2.49965369E-01
  6.49405766E-32 -7.15602721E-24  1.08138825E+00  1.33291393E-32 -1.97383223E+00
 -6.84906575E-01 -5.71008465E-32 -1.43081384E+00 -3.25192947E+00 -7.53554097E-32
  1.08076067E+00 -4.07267729E+00 -2.35568158E-32 -5.38016283E-01  3.82739278E+00
  3.39131329E-32 -3.90490933E+00 -3.65268502E-03 -9.63084699E-32 -2.95299773E+00
 -4.62263849E+00 -1.29775433E-31  1.49688397E+00 -6.07892017E+00 -3.80274372E-32
  4.99622601E+00 -2.96798698E+00  8.65832164E-32  4.03032288E+00  1.62676876E+00
  1.19406603E-31 -2.62868075E+00  4.75639544E+00 -6.17488334E-33  1.16870125E+00
  5.04945972E+00  9.10501065E-32
Num ILSW                                   I              100
ILSW                                       I   N=         100
           0           0           0           0           2           0
           0           0           0           0           0          -1
           0           0           0           0           0           0
           0           0           0           0           0           0
           1           0           0           0           0           0
           0           0      100000           0          -1           0
           0           0           0           0           0           0
           0           0           0           1           0           0
           0           0           1           0           0           0
           0           0           4          40           0           0
           0           0           0           0           0           0
           0           0           0           0           0           0
           0           0           0           0           0           0
           0           0           0           0           0           0
           0           0           0           0           0           0
           0           0           0           0           0           0
           0           0           0           0
Num RLSW                                   I               40
RLSW                                       R   N=          40
  1.00000000E+00  1.00000000E+00  1.00000000E+00  1.00000000E+00  1.00000000E+00
  0.00000000E+00  0.00000000E+00  1.00000000E+00  0.00000000E+00  0.00000000E+00
  0.00000000E+00  0.00000000E+00  1.00000000E+00  0.00000000E+00  0.00000000E+00
  0.00000000E+00  0.00000000E+00  1.00000000E+00  0.00000000E+00  0.00000000E+00
  0.00000000E+00  0.00000000E+00  1.00000000E+00  0.00000000E+00  0.00000000E+00
  0.00000000E+00  0.00000000E+00  1.00000000E+00  0.00000000E+00  0.00000000E+00
  0.00000000E+00  0.00000000E+00  0.00000000E+00  0.00000000E+00  0.00000000E+00
  0.00000000E+00  0.00000000E+00  0.00000000E+00  1.00000000E+00  1.00000000E+00
MxBond                                     I                3
NBond                                      I   N=          14
           3           3           3           3           3           3
           3           1           1           1           1           1
           1           1
IBond                                      I   N=          42
           2           6          11           1           3          12
           2           4           7           3           5           8
           4           6           9           1           5          10
           3          13          14           4           0           0
           5           0           0           6           0           0
           1           0           0           2           0           0
           7           0           0           7           0           0
RBond                                      R   N=          42
  1.50000000E+00  1.50000000E+00  1.00000000E+00  1.50000000E+00  1.50000000E+00
  1.00000000E+00  1.50000000E+00  1.50000000E+00  1.00000000E+00  1.50000000E+00
  1.50000000E+00  1.00000000E+00  1.50000000E+00  1.50000000E+00  1.00000000E+00
  1.50000000E+00  1.50000000E+00  1.00000000E+00  1.00000000E+00  2.00000000E+00
  1.00000000E+00  1.00000000E+00  0.00000000E+00  0.00000000E+00  1.00000000E+00
  0.00000000E+00  0.00000000E+00  1.00000000E+00  0.00000000E+00  0.00000000E+00
  1.00000000E+00  0.00000000E+00  0.00000000E+00  1.00000000E+00  0.00000000E+00
  0.00000000E+00  2.00000000E+00  0.00000000E+00  0.00000000E+00  1.00000000E+00
  0.00000000E+00  0.00000000E+00
Virial Ratio                               R      2.001273963593534E+00
SCF Energy                                 R     -3.435142132698111E+02
MP2 Energy                                 R     -3.446660517580186E+02
Total Energy                               R     -3.446660517580186E+02
Post-SCF wavefunction norm                 R      1.185545149562465E+00
RMS Density                                R      9.510909810827951E-09
External E-field                           R   N=          35
  0.00000000E+00  0.00000000E+00  0.00000000E+00  0.00000000E+00  0.00000000E+00
  0.00000000E+00  0.00000000E+00  0.00000000E+00  0.00000000E+00  0.00000000E+00
  0.00000000E+00  0.00000000E+00  0.00000000E+00  0.00000000E+00  0.00000000E+00
  0.00000000E+00  0.00000000E+00  0.00000000E+00  0.00000000E+00  0.00000000E+00
  0.00000000E+00  0.00000000E+00  0.00000000E+00  0.00000000E+00  0.00000000E+00
  0.00000000E+00  0.00000000E+00  0.00000000E+00  0.00000000E+00  0.00000000E+00
  0.00000000E+00  0.00000000E+00  0.00000000E+00  0.00000000E+00  0.00000000E+00
IOpCl                                      I                0
IROHF                                      I                0
Alpha Orbital Energies                     R   N=         218
 -2.05581469E+01 -1.13403860E+01 -1.12650890E+01 -1.12621660E+01 -1.12584390E+01
 -1.12569505E+01 -1.12551241E+01 -1.12533561E+01 -1.39626245E+00 -1.17595602E+00
 -1.05392564E+00 -1.03746051E+00 -8.97035562E-01 -8.49742091E-01 -7.95329758E-01
 -7.23404142E-01 -6.82178555E-01 -6.57142193E-01 -6.24002832E-01 -6.18668071E-01
 -6.08208223E-01 -5.56618451E-01 -5.33717851E-01 -5.12923430E-01 -5.04048687E-01
 -4.30800220E-01 -3.57367059E-01 -3.53981151E-01  3.35087498E-02  4.31551911E-02
  5.04907997E-02  5.84332353E-02  6.29810228E-02  7.31821219E-02  8.77939198E-02
  9.15714101E-02  1.03481056E-01  1.23596597E-01  1.29536881E-01  1.33643053E-01
  1.45782320E-01  1.61623704E-01  1.65814876E-01  1.71494416E-01  1.72872984E-01
  1.74010307E-01  1.79843504E-01  1.87257378E-01  1.91239657E-01  2.00327416E-01
  2.07254695E-01  2.08849690E-01  2.17215479E-01  2.20435062E-01  2.22665605E-01
  2.34310352E-01  2.36444545E-01  2.39808834E-01  2.57881067E-01  2.75298484E-01
  2.90488974E-01  2.95352536E-01  3.08984968E-01  3.14836280E-01  3.32199015E-01
  3.38830655E-01  3.58740987E-01  3.68593827E-01  3.77118824E-01  3.99925679E-01
  4.00350076E-01  4.08971839E-01  4.16282583E-01  4.24732104E-01  4.56257699E-01
  4.60413659E-01  4.76024204E-01  4.89024830E-01  4.94154963E-01  5.45076764E-01
  5.50681688E-01  5.94985556E-01  6.39590236E-01  6.86764796E-01  7.05909132E-01
  7.07809325E-01  7.12706994E-01  7.19365375E-01  7.24382410E-01  7.28104741E-01
  7.38293424E-01  7.40854816E-01  7.78166679E-01  8.02137755E-01  8.19333081E-01
  8.27801900E-01  8.41483463E-01  8.81854265E-01  9.07034445E-01  9.21304714E-01
  9.31765432E-01  9.37887256E-01  9.54555778E-01  9.87226099E-01  1.00462894E+00
  1.02643843E+00  1.03680969E+00  1.03825815E+00  1.06318611E+00  1.10180591E+00
  1.11146655E+00  1.11675488E+00  1.12690285E+00  1.15478731E+00  1.16243071E+00
  1.18419937E+00  1.22298939E+00  1.24602720E+00  1.25121257E+00  1.28560226E+00
  1.30367431E+00  1.34381213E+00  1.36923047E+00  1.38168275E+00  1.43380098E+00
  1.48222122E+00  1.50012378E+00  1.51956919E+00  1.59523071E+00  1.71158973E+00
  1.73455271E+00  1.76170748E+00  1.77430464E+00  1.77761285E+00  1.81735615E+00
  1.82124459E+00  1.82274809E+00  1.87964014E+00  1.89617945E+00  1.90555924E+00
  1.93860359E+00  1.96767458E+00  1.98914497E+00  2.01267976E+00  2.03458182E+00
  2.05163366E+00  2.07433465E+00  2.10618825E+00  2.13781217E+00  2.21134444E+00
  2.21529684E+00  2.22970447E+00  2.23334338E+00  2.24582101E+00  2.26175690E+00
  2.31353310E+00  2.33818209E+00  2.34033082E+00  2.36411212E+00  2.49796010E+00
  2.50417748E+00  2.60248915E+00  2.65003269E+00  2.70666385E+00  2.74988080E+00
  2.78124211E+00  2.80465357E+00  2.81105967E+00  2.93658264E+00  2.94701981E+00
  2.97892807E+00  2.99715727E+00  3.00498458E+00  3.03148085E+00  3.03198016E+00
  3.03965208E+00  3.06035077E+00  3.06682394E+00  3.07370735E+00  3.17335611E+00
  3.19944674E+00  3.20728808E+00  3.25046982E+00  3.25087078E+00  3.27690129E+00
  3.30049912E+00  3.33194633E+00  3.38866304E+00  3.46679872E+00  3.60074568E+00
  3.61542355E+00  3.75410090E+00  3.75795352E+00  3.78465739E+00  3.88117735E+00
  3.90430054E+00  3.92933732E+00  3.94747717E+00  4.03667628E+00  4.07715292E+00
  4.33092298E+00  4.39764436E+00  4.43553466E+00  4.55116054E+00  4.56502498E+00
  4.75637823E+00  5.25803371E+00  5.59026521E+00  5.73443021E+00  6.30831187E+00
  2.47384735E+01  2.50482473E+01  2.51037188E+01  2.51076964E+01  2.52130494E+01
  2.52491387E+01  2.53404727E+01  5.16937907E+01
Alpha MO coefficients                      R   N=       47524
  3.42695024E-08  2.87719116E-07 -3.72078712E-07 -3.02530981E-07  0.00000000E+00
 -5.77895318E-06  2.73307223E-06  5.37169950E-08  0.00000000E+00  5.49765295E-05
 -2.08752792E-05  2.05830612E-05  0.00000000E+00 -4.93077644E-03  1.57779784E-04
 -1.16746275E-03  0.00000000E+00 -1.84370751E-06  0.00000000E+00  0.00000000E+00
  3.56160496E-07 -2.44649035E-06  5.93785330E-08 -1.54522372E-06 -2.28492222E-06
  9.03191351E-07  0.00000000E+00  1.23130696E-05  2.18051369E-06 -3.23127076E-06
  0.00000000E+00 -4.22791906E-04  1.11124842E-04 -6.29106420E-05  0.00000000E+00
 -4.67808607E-04  1.36747619E-03 -2.56043768E-03  0.00000000E+00  6.91855131E-08
  0.00000000E+00  0.00000000E+00  4.72502398E-06 -6.84145245E-06  1.72542711E-06
 -1.52275676E-06  8.29357790E-06 -1.18461443E-05  0.00000000E+00  1.92352496E-05
 -3.41123380E-05  4.36612291E-05  0.00000000E+00 -1.35100826E-04  5.82274691E-04
  9.76914360E-05  0.00000000E+00 -2.27448580E-03  3.65198000E-03  3.85993864E-03