 Entering Gaussian System, Link 0=g09
 Initial command:
 /apps/software//g09/l1.exe /scratch/itamar/2458.cluster.abaxnet/Gau-11116.inp -scrdir=/scratch/itamar/2458.cluster.abaxnet/
 Entering Link 1 = /apps/software//g09/l1.exe PID=     11117.
  
 Copyright (c) 1988,1990,1992,1993,1995,1998,2003,2009, Gaussian, Inc.
                  All Rights Reserved.
  
 This is part of the Gaussian(R) 09 program.  It is based on
 the Gaussian(R) 03 system (copyright 2003, Gaussian, Inc.),
 the Gaussian(R) 98 system (copyright 1998, Gaussian, Inc.),
 the Gaussian(R) 94 system (copyright 1995, Gaussian, Inc.),
 the Gaussian 92(TM) system (copyright 1992, Gaussian, Inc.),
 the Gaussian 90(TM) system (copyright 1990, Gaussian, Inc.),
 the Gaussian 88(TM) system (copyright 1988, Gaussian, Inc.),
 the Gaussian 86(TM) system (copyright 1986, Carnegie Mellon
 University), and the Gaussian 82(TM) system (copyright 1983,
 Carnegie Mellon University). Gaussian is a federally registered
 trademark of Gaussian, Inc.
  
 This software contains proprietary and confidential information,
 including trade secrets, belonging to Gaussian, Inc.
  
 This software is provided under written license and may be
 used, copied, transmitted, or stored only in accord with that
 written license.
  
 The following legend is applicable only to US Government
 contracts under FAR:
  
                    RESTRICTED RIGHTS LEGEND
  
 Use, reproduction and disclosure by the US Government is
 subject to restrictions as set forth in subparagraphs (a)
 and (c) of the Commercial Computer Software - Restricted
 Rights clause in FAR 52.227-19.
  
 Gaussian, Inc.
 340 Quinnipiac St., Bldg. 40, Wallingford CT 06492
  
  
 ---------------------------------------------------------------
 Warning -- This program may not be used in any manner that
 competes with the business of Gaussian, Inc. or will provide
 assistance to any competitor of Gaussian, Inc.  The licensee
 of this program is prohibited from giving any competitor of
 Gaussian, Inc. access to this program.  By using this program,
 the user acknowledges that Gaussian, Inc. is engaged in the
 business of creating and licensing software in the field of
 computational chemistry and represents and warrants to the
 licensee that it is not a competitor of Gaussian, Inc. and that
 it will not use this program in any manner prohibited above.
 ---------------------------------------------------------------
  

 Cite this work as:
 Gaussian 09, Revision A.02,
 M. J. Frisch, G. W. Trucks, H. B. Schlegel, G. E. Scuseria, 
 M. A. Robb, J. R. Cheeseman, G. Scalmani, V. Barone, B. Mennucci, 
 G. A. Petersson, H. Nakatsuji, M. Caricato, X. Li, H. P. Hratchian, 
 A. F. Izmaylov, J. Bloino, G. Zheng, J. L. Sonnenberg, M. Hada, 
 M. Ehara, K. Toyota, R. Fukuda, J. Hasegawa, M. Ishida, T. Nakajima, 
 Y. Honda, O. Kitao, H. Nakai, T. Vreven, J. A. Montgomery, Jr., 
 J. E. Peralta, F. Ogliaro, M. Bearpark, J. J. Heyd, E. Brothers, 
 K. N. Kudin, V. N. Staroverov, R. Kobayashi, J. Normand, 
 K. Raghavachari, A. Rendell, J. C. Burant, S. S. Iyengar, J. Tomasi, 
 M. Cossi, N. Rega, J. M. Millam, M. Klene, J. E. Knox, J. B. Cross, 
 V. Bakken, C. Adamo, J. Jaramillo, R. Gomperts, R. E. Stratmann, 
 O. Yazyev, A. J. Austin, R. Cammi, C. Pomelli, J. W. Ochterski, 
 R. L. Martin, K. Morokuma, V. G. Zakrzewski, G. A. Voth, 
 P. Salvador, J. J. Dannenberg, S. Dapprich, A. D. Daniels, 
 O. Farkas, J. B. Foresman, J. V. Ortiz, J. Cioslowski, 
 and D. J. Fox, Gaussian, Inc., Wallingford CT, 2009.
 
 ******************************************
 Gaussian 09:  EM64L-G09RevA.02 11-Jun-2009
                 3-Dec-2021 
 ******************************************
 %Mem=3800MB
 %NProcShared=6
 Will use up to    6 processors via shared memory.
 %chk=/home/itamar/Aromaticity-test-set/T6-Subst-Complex-in-Benzene/CHO/cho.chk
 -----------------------------
 #P MP2/6-311++G** DENSITY=MP2
 -----------------------------
 1/30=1,38=1/1;
 2/12=2,17=6,18=5,40=1/2;
 3/5=4,6=6,7=1111,11=9,16=1,25=1,30=1,71=1/1,2,3;
 4//1;
 5/5=2,38=5/2;
 8/6=4,10=2/1;
 9/15=1,16=-3/6;
 10/5=1,13=10/2;
 6/7=2,8=2,9=2,10=2,22=2/1;
 99/5=1,9=1/99;
 Leave Link    1 at Fri Dec  3 14:21:18 2021, MaxMem=  498073600 cpu:       0.2
 (Enter /apps/software//g09/l101.exe)
 -----
 X=CHO
 -----
 Symbolic Z-matrix:
 Charge =  0 Multiplicity = 1
 6                     1.61494  -1.2303    0. 
 6                     1.32788   0.13228   0. 
 6                     0.        0.57225   0. 
 6                    -1.04451  -0.36244   0. 
 6                    -0.75715  -1.72085   0. 
 6                     0.57191  -2.15517   0. 
 6                    -0.28471   2.02537   0. 
 1                    -2.06639  -0.00193   0. 
 1                    -1.56266  -2.4462    0. 
 1                     0.79212  -3.21683   0. 
 1                     2.64389  -1.57059   0. 
 1                     2.13275   0.86085   0. 
 8                    -1.39104   2.51698   0. 
 1                     0.61845   2.67206   0. 
 
 NAtoms=     14 NQM=     14 NQMF=      0 NMic=      0 NMicF=      0 NTot=     14.
                    Isotopes and Nuclear Properties:
 (Nuclear quadrupole moments (NQMom) in fm**2, nuclear magnetic moments (NMagM)
  in nuclear magnetons)

  Atom         1           2           3           4           5           6           7           8           9          10
 IAtWgt=          12          12          12          12          12          12          12           1           1           1
 AtmWgt=  12.0000000  12.0000000  12.0000000  12.0000000  12.0000000  12.0000000  12.0000000   1.0078250   1.0078250   1.0078250
 NucSpn=           0           0           0           0           0           0           0           1           1           1
 AtZEff=   0.0000000   0.0000000   0.0000000   0.0000000   0.0000000   0.0000000   0.0000000   0.0000000   0.0000000   0.0000000
 NQMom=    0.0000000   0.0000000   0.0000000   0.0000000   0.0000000   0.0000000   0.0000000   0.0000000   0.0000000   0.0000000
 NMagM=    0.0000000   0.0000000   0.0000000   0.0000000   0.0000000   0.0000000   0.0000000   2.7928460   2.7928460   2.7928460

  Atom        11          12          13          14
 IAtWgt=           1           1          16           1
 AtmWgt=   1.0078250   1.0078250  15.9949146   1.0078250
 NucSpn=           1           1           0           1
 AtZEff=   0.0000000   0.0000000   0.0000000   0.0000000
 NQMom=    0.0000000   0.0000000   0.0000000   0.0000000
 NMagM=    2.7928460   2.7928460   0.0000000   2.7928460
 Leave Link  101 at Fri Dec  3 14:21:19 2021, MaxMem=  498073600 cpu:       0.3
 (Enter /apps/software//g09/l202.exe)
                          Input orientation:                          
 ---------------------------------------------------------------------
 Center     Atomic      Atomic             Coordinates (Angstroms)
 Number     Number       Type             X           Y           Z
 ---------------------------------------------------------------------
      1          6           0        1.614935   -1.230301    0.000000
      2          6           0        1.327875    0.132276    0.000000
      3          6           0        0.000000    0.572246    0.000000
      4          6           0       -1.044507   -0.362437    0.000000
      5          6           0       -0.757154   -1.720847    0.000000
      6          6           0        0.571914   -2.155168    0.000000
      7          6           0       -0.284706    2.025369    0.000000
      8          1           0       -2.066389   -0.001933    0.000000
      9          1           0       -1.562659   -2.446195    0.000000
     10          1           0        0.792117   -3.216826    0.000000
     11          1           0        2.643889   -1.570591    0.000000
     12          1           0        2.132755    0.860849    0.000000
     13          8           0       -1.391038    2.516976    0.000000
     14          1           0        0.618450    2.672059    0.000000
 ---------------------------------------------------------------------
                    Distance matrix (angstroms):
                    1          2          3          4          5
     1  C    0.000000
     2  C    1.392487   0.000000
     3  C    2.420163   1.398866   0.000000
     4  C    2.797467   2.423414   1.401652   0.000000
     5  C    2.422280   2.789518   2.414862   1.388470   0.000000
     6  C    1.394013   2.409124   2.786732   2.413856   1.398233
     7  C    3.769353   2.486809   1.480751   2.505776   3.775889
     8  H    3.880855   3.396916   2.144678   1.083608   2.160732
     9  H    3.402279   3.873461   3.398954   2.147214   1.083959
    10  H    2.150189   3.391684   3.870984   3.394219   2.153647
    11  H    1.083764   2.152127   3.403219   3.881224   3.404360
    12  H    2.154309   1.085657   2.152193   3.404618   3.875142
    13  O    4.803952   3.616529   2.391017   2.900190   4.284968
    14  H    4.027579   2.637002   2.188994   3.460288   4.603250
                    6          7          8          9         10
     6  C    0.000000
     7  C    4.267398   0.000000
     8  H    3.405446   2.698953   0.000000
     9  H    2.154321   4.650597   2.495628   0.000000
    10  H    1.084254   5.351650   4.301929   2.477669   0.000000
    11  H    2.152861   4.637628   4.964615   4.296711   2.477731
    12  H    3.395966   2.683323   4.286864   4.959095   4.292405
    13  O    5.067752   1.210639   2.607873   4.966137   6.135361
    14  H    4.827451   1.110810   3.789274   5.563610   5.891445
                   11         12         13         14
    11  H    0.000000
    12  H    2.484584   0.000000
    13  O    5.743591   3.893568   0.000000
    14  H    4.701328   2.360848   2.015463   0.000000
 Stoichiometry    C7H6O
 Framework group  CS[SG(C7H6O)]
 Deg. of freedom    25
 Full point group                 CS      NOp   2
 Largest Abelian subgroup         CS      NOp   2
 Largest concise Abelian subgroup C1      NOp   1
                         Standard orientation:                         
 ---------------------------------------------------------------------
 Center     Atomic      Atomic             Coordinates (Angstroms)
 Number     Number       Type             X           Y           Z
 ---------------------------------------------------------------------
      1          6           0        1.614935   -1.230301    0.000000
      2          6           0        1.327875    0.132276    0.000000
      3          6           0        0.000000    0.572246    0.000000
      4          6           0       -1.044507   -0.362437    0.000000
      5          6           0       -0.757154   -1.720847    0.000000
      6          6           0        0.571914   -2.155168    0.000000
      7          6           0       -0.284706    2.025369    0.000000
      8          1           0       -2.066389   -0.001933    0.000000
      9          1           0       -1.562659   -2.446195    0.000000
     10          1           0        0.792117   -3.216826    0.000000
     11          1           0        2.643889   -1.570591    0.000000
     12          1           0        2.132755    0.860849    0.000000
     13          8           0       -1.391038    2.516976    0.000000
     14          1           0        0.618450    2.672059    0.000000
 ---------------------------------------------------------------------
 Rotational constants (GHZ):      5.2544102      1.5602288      1.2030105
 Leave Link  202 at Fri Dec  3 14:21:19 2021, MaxMem=  498073600 cpu:       0.0
 (Enter /apps/software//g09/l301.exe)
 Standard basis: 6-311++G(d,p) (5D, 7F)
 Ernie: Thresh=  0.10000D-02 Tol=  0.10000D-05 Strict=F.
 There are   164 symmetry adapted basis functions of A'  symmetry.
 There are    54 symmetry adapted basis functions of A"  symmetry.
 Integral buffers will be    131072 words long.
 Raffenetti 1 integral format.
 Two-electron integral symmetry is turned on.
   218 basis functions,   342 primitive gaussians,   226 cartesian basis functions
    28 alpha electrons       28 beta electrons
       nuclear repulsion energy       320.9934195525 Hartrees.
 IExCor=    0 DFT=F Ex=HF Corr=None ExCW=0 ScaHFX=  1.000000
 ScaDFX=  1.000000  1.000000  1.000000  1.000000 ScalE2=  1.000000  1.000000
 IRadAn=      0 IRanWt=     -1 IRanGd=            0 ICorTp=0
 NAtoms=   14 NActive=   14 NUniq=   14 SFac= 7.50D-01 NAtFMM=   80 NAOKFM=F Big=F
 Leave Link  301 at Fri Dec  3 14:21:19 2021, MaxMem=  498073600 cpu:       0.2
 (Enter /apps/software//g09/l302.exe)
 NPDir=0 NMtPBC=     1 NCelOv=     1 NCel=       1 NClECP=     1 NCelD=      1
         NCelK=      1 NCelE2=     1 NClLst=     1 CellRange=     0.0.
 One-electron integrals computed using PRISM.
 NBasis=   218 RedAO= T  NBF=   164    54
 NBsUse=   218 1.00D-06 NBFU=   164    54
 Leave Link  302 at Fri Dec  3 14:21:19 2021, MaxMem=  498073600 cpu:       1.5
 (Enter /apps/software//g09/l303.exe)
 DipDrv:  MaxL=1.
 Leave Link  303 at Fri Dec  3 14:21:19 2021, MaxMem=  498073600 cpu:       0.3
 (Enter /apps/software//g09/l401.exe)
 Harris functional with IExCor=  205 diagonalized for initial guess.
 ExpMin= 3.60D-02 ExpMax= 8.59D+03 ExpMxC= 1.30D+03 IAcc=3 IRadAn=         0 AccDes= 0.00D+00
 HarFok:  IExCor=  205 AccDes= 0.00D+00 IRadAn=         0 IDoV= 1
 ScaDFX=  1.000000  1.000000  1.000000  1.000000
 FoFCou: FMM=F IPFlag=           0 FMFlag=      100000 FMFlg1=           0
         NFxFlg=           0 DoJE=T BraDBF=F KetDBF=T FulRan=T
         Omega=  0.000000  0.000000  1.000000  0.000000  0.000000 ICntrl=     500 IOpCl=  0
         NMat0=    1 NMatS0=    1 NMatT0=    0 NMatD0=    1 NMtDS0=    0 NMtDT0=    0
         I1Cent=           4 NGrid=           0.
 Petite list used in FoFCou.
 Harris En= -343.935412968645    
 Initial guess orbital symmetries:
       Occupied  (A') (A') (A') (A') (A') (A') (A') (A') (A') (A')
                 (A') (A') (A') (A') (A') (A') (A') (A') (A') (A')
                 (A') (A") (A') (A") (A') (A") (A") (A')
       Virtual   (A") (A") (A") (A') (A') (A") (A') (A') (A') (A')
                 (A") (A') (A') (A") (A") (A') (A') (A') (A') (A')
                 (A') (A') (A") (A') (A') (A") (A') (A') (A") (A')
                 (A') (A') (A') (A") (A') (A') (A') (A') (A') (A')
                 (A') (A') (A") (A') (A') (A') (A') (A') (A') (A')
                 (A') (A') (A') (A') (A') (A') (A') (A') (A") (A")
                 (A') (A') (A') (A") (A") (A") (A') (A") (A') (A')
                 (A") (A') (A') (A') (A') (A') (A') (A') (A') (A')
                 (A') (A') (A') (A') (A") (A') (A") (A') (A') (A")
                 (A") (A') (A") (A') (A") (A") (A') (A') (A") (A')
                 (A') (A') (A') (A') (A') (A") (A') (A") (A") (A')
                 (A') (A') (A') (A") (A') (A") (A') (A") (A") (A')
                 (A') (A") (A') (A') (A") (A') (A') (A') (A') (A")
                 (A") (A') (A') (A") (A") (A') (A') (A') (A') (A')
                 (A") (A') (A') (A") (A') (A') (A") (A') (A') (A")
                 (A') (A') (A') (A") (A") (A') (A') (A") (A') (A')
                 (A") (A') (A') (A') (A') (A") (A') (A') (A') (A')
                 (A') (A') (A') (A') (A') (A') (A') (A') (A') (A")
                 (A') (A') (A') (A') (A') (A') (A') (A') (A') (A')
 The electronic state of the initial guess is 1-A'.
 Leave Link  401 at Fri Dec  3 14:21:20 2021, MaxMem=  498073600 cpu:       4.1
 (Enter /apps/software//g09/l502.exe)
 Closed shell SCF:
 Requested convergence on RMS density matrix=1.00D-08 within 128 cycles.
 Requested convergence on MAX density matrix=1.00D-06.
 Requested convergence on             energy=1.00D-06.
 No special actions if energy rises.
 Using DIIS extrapolation, IDIIS=  1040.
 Integral symmetry usage will be decided dynamically.
 Keep R1 ints in memory in canonical form, NReq=335022656.
 IEnd=      174488 IEndB=      174488 NGot=   498073600 MDV=   168967301
 LenX=   168967301 LenY=   168915784
 Symmetry not used in FoFDir.
 MinBra= 0 MaxBra= 2 Meth= 1.
 IRaf=       0 NMat=   1 IRICut=       1 DoRegI=T DoRafI=F ISym2E= 0 JSym2E=0.

 Cycle   1  Pass 1  IDiag  1:
 E= -343.182635211350    
 DIIS: error= 7.28D-02 at cycle   1 NSaved=   1.
 NSaved= 1 IEnMin= 1 EnMin= -343.182635211350     IErMin= 1 ErrMin= 7.28D-02
 ErrMax= 7.28D-02 EMaxC= 1.00D-01 BMatC= 6.85D-01 BMatP= 6.85D-01
 IDIUse=3 WtCom= 2.72D-01 WtEn= 7.28D-01
 Coeff-Com:  0.100D+01
 Coeff-En:   0.100D+01
 Coeff:      0.100D+01
 Gap=     0.358 Goal=   None    Shift=    0.000
 GapD=    0.358 DampG=1.000 DampE=0.500 DampFc=0.5000 IDamp=-1.
 Damping current iteration by 5.00D-01
 RMSDP=2.13D-02 MaxDP=1.22D+00              OVMax= 1.44D-01

 Cycle   2  Pass 1  IDiag  1:
 E= -343.354937164583     Delta-E=       -0.172301953232 Rises=F Damp=T
 DIIS: error= 2.87D-02 at cycle   2 NSaved=   2.
 NSaved= 2 IEnMin= 2 EnMin= -343.354937164583     IErMin= 2 ErrMin= 2.87D-02
 ErrMax= 2.87D-02 EMaxC= 1.00D-01 BMatC= 1.51D-01 BMatP= 6.85D-01
 IDIUse=3 WtCom= 7.13D-01 WtEn= 2.87D-01
 Coeff-Com: -0.693D+00 0.169D+01
 Coeff-En:   0.000D+00 0.100D+01
 Coeff:     -0.493D+00 0.149D+01
 Gap=     0.398 Goal=   None    Shift=    0.000
 RMSDP=8.80D-03 MaxDP=8.47D-01 DE=-1.72D-01 OVMax= 5.11D-02

 Cycle   3  Pass 1  IDiag  1:
 E= -343.510651337885     Delta-E=       -0.155714173302 Rises=F Damp=F
 DIIS: error= 6.81D-03 at cycle   3 NSaved=   3.
 NSaved= 3 IEnMin= 3 EnMin= -343.510651337885     IErMin= 3 ErrMin= 6.81D-03
 ErrMax= 6.81D-03 EMaxC= 1.00D-01 BMatC= 4.45D-03 BMatP= 1.51D-01
 IDIUse=3 WtCom= 9.32D-01 WtEn= 6.81D-02
 Coeff-Com: -0.176D+00 0.323D+00 0.854D+00
 Coeff-En:   0.000D+00 0.000D+00 0.100D+01
 Coeff:     -0.164D+00 0.301D+00 0.864D+00
 Gap=     0.393 Goal=   None    Shift=    0.000
 RMSDP=2.82D-03 MaxDP=2.10D-01 DE=-1.56D-01 OVMax= 1.66D-02

 Cycle   4  Pass 1  IDiag  1:
 E= -343.513720543783     Delta-E=       -0.003069205898 Rises=F Damp=F
 DIIS: error= 1.91D-03 at cycle   4 NSaved=   4.
 NSaved= 4 IEnMin= 4 EnMin= -343.513720543783     IErMin= 4 ErrMin= 1.91D-03
 ErrMax= 1.91D-03 EMaxC= 1.00D-01 BMatC= 5.33D-04 BMatP= 4.45D-03
 IDIUse=3 WtCom= 9.81D-01 WtEn= 1.91D-02
 Coeff-Com: -0.309D-01 0.442D-01 0.293D+00 0.694D+00
 Coeff-En:   0.000D+00 0.000D+00 0.000D+00 0.100D+01
 Coeff:     -0.303D-01 0.433D-01 0.287D+00 0.700D+00
 Gap=     0.387 Goal=   None    Shift=    0.000
 RMSDP=8.42D-04 MaxDP=4.54D-02 DE=-3.07D-03 OVMax= 5.20D-03

 Cycle   5  Pass 1  IDiag  1:
 E= -343.514165163935     Delta-E=       -0.000444620152 Rises=F Damp=F
 DIIS: error= 8.64D-04 at cycle   5 NSaved=   5.
 NSaved= 5 IEnMin= 5 EnMin= -343.514165163935     IErMin= 5 ErrMin= 8.64D-04
 ErrMax= 8.64D-04 EMaxC= 1.00D-01 BMatC= 2.51D-05 BMatP= 5.33D-04
 IDIUse=3 WtCom= 9.91D-01 WtEn= 8.64D-03
 Coeff-Com:  0.100D-01-0.197D-01-0.423D-01 0.838D-01 0.968D+00
 Coeff-En:   0.000D+00 0.000D+00 0.000D+00 0.000D+00 0.100D+01
 Coeff:      0.992D-02-0.196D-01-0.419D-01 0.830D-01 0.969D+00
 Gap=     0.388 Goal=   None    Shift=    0.000
 RMSDP=1.53D-04 MaxDP=5.37D-03 DE=-4.45D-04 OVMax= 2.24D-03

 Cycle   6  Pass 1  IDiag  1:
 E= -343.514206367098     Delta-E=       -0.000041203163 Rises=F Damp=F
 DIIS: error= 1.49D-04 at cycle   6 NSaved=   6.
 NSaved= 6 IEnMin= 6 EnMin= -343.514206367098     IErMin= 6 ErrMin= 1.49D-04
 ErrMax= 1.49D-04 EMaxC= 1.00D-01 BMatC= 2.50D-06 BMatP= 2.51D-05
 IDIUse=3 WtCom= 9.99D-01 WtEn= 1.49D-03
 Coeff-Com:  0.415D-02-0.673D-02-0.307D-01-0.679D-01 0.661D-01 0.104D+01
 Coeff-En:   0.000D+00 0.000D+00 0.000D+00 0.000D+00 0.000D+00 0.100D+01
 Coeff:      0.414D-02-0.672D-02-0.307D-01-0.678D-01 0.660D-01 0.104D+01
 Gap=     0.387 Goal=   None    Shift=    0.000
 RMSDP=1.06D-04 MaxDP=5.88D-03 DE=-4.12D-05 OVMax= 8.73D-04

 Cycle   7  Pass 1  IDiag  1:
 E= -343.514212192559     Delta-E=       -0.000005825461 Rises=F Damp=F
 DIIS: error= 9.19D-05 at cycle   7 NSaved=   7.
 NSaved= 7 IEnMin= 7 EnMin= -343.514212192559     IErMin= 7 ErrMin= 9.19D-05
 ErrMax= 9.19D-05 EMaxC= 1.00D-01 BMatC= 3.14D-07 BMatP= 2.50D-06
 IDIUse=1 WtCom= 1.00D+00 WtEn= 0.00D+00
 Coeff-Com: -0.589D-03 0.118D-02 0.414D-02-0.128D-01-0.643D-01 0.468D-02
 Coeff-Com:  0.107D+01
 Coeff:     -0.589D-03 0.118D-02 0.414D-02-0.128D-01-0.643D-01 0.468D-02
 Coeff:      0.107D+01
 Gap=     0.388 Goal=   None    Shift=    0.000
 RMSDP=4.18D-05 MaxDP=2.34D-03 DE=-5.83D-06 OVMax= 3.61D-04

 Cycle   8  Pass 1  IDiag  1:
 E= -343.514213040880     Delta-E=       -0.000000848321 Rises=F Damp=F
 DIIS: error= 3.64D-05 at cycle   8 NSaved=   8.
 NSaved= 8 IEnMin= 8 EnMin= -343.514213040880     IErMin= 8 ErrMin= 3.64D-05
 ErrMax= 3.64D-05 EMaxC= 1.00D-01 BMatC= 6.04D-08 BMatP= 3.14D-07
 IDIUse=1 WtCom= 1.00D+00 WtEn= 0.00D+00
 Coeff-Com: -0.613D-03 0.969D-03 0.526D-02 0.813D-02 0.134D-02-0.167D+00
 Coeff-Com: -0.168D+00 0.132D+01
 Coeff:     -0.613D-03 0.969D-03 0.526D-02 0.813D-02 0.134D-02-0.167D+00
 Coeff:     -0.168D+00 0.132D+01
 Gap=     0.387 Goal=   None    Shift=    0.000
 RMSDP=2.20D-05 MaxDP=1.24D-03 DE=-8.48D-07 OVMax= 2.35D-04

 Cycle   9  Pass 1  IDiag  1:
 E= -343.514213248776     Delta-E=       -0.000000207896 Rises=F Damp=F
 DIIS: error= 1.09D-05 at cycle   9 NSaved=   9.
 NSaved= 9 IEnMin= 9 EnMin= -343.514213248776     IErMin= 9 ErrMin= 1.09D-05
 ErrMax= 1.09D-05 EMaxC= 1.00D-01 BMatC= 8.71D-09 BMatP= 6.04D-08
 IDIUse=1 WtCom= 1.00D+00 WtEn= 0.00D+00
 Coeff-Com: -0.789D-04 0.920D-04 0.877D-03 0.263D-02 0.823D-02-0.376D-01
 Coeff-Com: -0.183D+00 0.336D+00 0.873D+00
 Coeff:     -0.789D-04 0.920D-04 0.877D-03 0.263D-02 0.823D-02-0.376D-01
 Coeff:     -0.183D+00 0.336D+00 0.873D+00
 Gap=     0.387 Goal=   None    Shift=    0.000
 RMSDP=4.30D-06 MaxDP=2.58D-04 DE=-2.08D-07 OVMax= 5.24D-05

 Cycle  10  Pass 1  IDiag  1:
 E= -343.514213266940     Delta-E=       -0.000000018164 Rises=F Damp=F
 DIIS: error= 4.70D-06 at cycle  10 NSaved=  10.
 NSaved=10 IEnMin=10 EnMin= -343.514213266940     IErMin=10 ErrMin= 4.70D-06
 ErrMax= 4.70D-06 EMaxC= 1.00D-01 BMatC= 8.39D-10 BMatP= 8.71D-09
 IDIUse=1 WtCom= 1.00D+00 WtEn= 0.00D+00
 Coeff-Com:  0.108D-03-0.177D-03-0.838D-03-0.170D-02 0.755D-04 0.307D-01
 Coeff-Com:  0.179D-01-0.206D+00 0.107D-01 0.115D+01
 Coeff:      0.108D-03-0.177D-03-0.838D-03-0.170D-02 0.755D-04 0.307D-01
 Coeff:      0.179D-01-0.206D+00 0.107D-01 0.115D+01
 Gap=     0.387 Goal=   None    Shift=    0.000
 RMSDP=3.05D-06 MaxDP=2.02D-04 DE=-1.82D-08 OVMax= 2.49D-05

 Cycle  11  Pass 1  IDiag  1:
 E= -343.514213269492     Delta-E=       -0.000000002552 Rises=F Damp=F
 DIIS: error= 1.21D-06 at cycle  11 NSaved=  11.
 NSaved=11 IEnMin=11 EnMin= -343.514213269492     IErMin=11 ErrMin= 1.21D-06
 ErrMax= 1.21D-06 EMaxC= 1.00D-01 BMatC= 6.12D-11 BMatP= 8.39D-10
 IDIUse=1 WtCom= 1.00D+00 WtEn= 0.00D+00
 Coeff-Com:  0.263D-05-0.265D-05 0.483D-05-0.829D-04-0.663D-03 0.986D-03
 Coeff-Com:  0.114D-01-0.622D-02-0.713D-01-0.949D-01 0.116D+01
 Coeff:      0.263D-05-0.265D-05 0.483D-05-0.829D-04-0.663D-03 0.986D-03
 Coeff:      0.114D-01-0.622D-02-0.713D-01-0.949D-01 0.116D+01
 Gap=     0.387 Goal=   None    Shift=    0.000
 RMSDP=1.50D-06 MaxDP=1.00D-04 DE=-2.55D-09 OVMax= 1.03D-05

 Cycle  12  Pass 1  IDiag  1:
 E= -343.514213269743     Delta-E=       -0.000000000251 Rises=F Damp=F
 DIIS: error= 5.00D-07 at cycle  12 NSaved=  12.
 NSaved=12 IEnMin=12 EnMin= -343.514213269743     IErMin=12 ErrMin= 5.00D-07
 ErrMax= 5.00D-07 EMaxC= 1.00D-01 BMatC= 1.50D-11 BMatP= 6.12D-11
 IDIUse=1 WtCom= 1.00D+00 WtEn= 0.00D+00
 Coeff-Com: -0.139D-04 0.229D-04 0.119D-03 0.225D-03-0.178D-03-0.407D-02
 Coeff-Com: -0.814D-03 0.290D-01-0.155D-01-0.189D+00 0.284D+00 0.896D+00
 Coeff:     -0.139D-04 0.229D-04 0.119D-03 0.225D-03-0.178D-03-0.407D-02
 Coeff:     -0.814D-03 0.290D-01-0.155D-01-0.189D+00 0.284D+00 0.896D+00
 Gap=     0.387 Goal=   None    Shift=    0.000
 RMSDP=3.18D-07 MaxDP=2.00D-05 DE=-2.51D-10 OVMax= 3.80D-06

 Cycle  13  Pass 1  IDiag  1:
 E= -343.514213269788     Delta-E=       -0.000000000045 Rises=F Damp=F
 DIIS: error= 3.06D-07 at cycle  13 NSaved=  13.
 NSaved=13 IEnMin=13 EnMin= -343.514213269788     IErMin=13 ErrMin= 3.06D-07
 ErrMax= 3.06D-07 EMaxC= 1.00D-01 BMatC= 2.73D-12 BMatP= 1.50D-11
 IDIUse=1 WtCom= 1.00D+00 WtEn= 0.00D+00
 Coeff-Com:  0.231D-05-0.398D-05-0.291D-04-0.270D-04 0.126D-03 0.796D-03
 Coeff-Com: -0.203D-02-0.501D-02 0.157D-01 0.511D-01-0.188D+00-0.438D+00
 Coeff-Com:  0.157D+01
 Coeff:      0.231D-05-0.398D-05-0.291D-04-0.270D-04 0.126D-03 0.796D-03
 Coeff:     -0.203D-02-0.501D-02 0.157D-01 0.511D-01-0.188D+00-0.438D+00
 Coeff:      0.157D+01
 Gap=     0.387 Goal=   None    Shift=    0.000
 RMSDP=1.70D-07 MaxDP=8.46D-06 DE=-4.54D-11 OVMax= 3.41D-06

 Cycle  14  Pass 1  IDiag  1:
 E= -343.514213269811     Delta-E=       -0.000000000022 Rises=F Damp=F
 DIIS: error= 1.32D-07 at cycle  14 NSaved=  14.
 NSaved=14 IEnMin=14 EnMin= -343.514213269811     IErMin=14 ErrMin= 1.32D-07
 ErrMax= 1.32D-07 EMaxC= 1.00D-01 BMatC= 5.77D-13 BMatP= 2.73D-12
 IDIUse=1 WtCom= 1.00D+00 WtEn= 0.00D+00
 Coeff-Com:  0.265D-05-0.434D-05-0.251D-04-0.390D-04 0.381D-04 0.827D-03
 Coeff-Com:  0.662D-04-0.571D-02 0.361D-02 0.383D-01-0.409D-01-0.271D+00
 Coeff-Com:  0.167D+00 0.111D+01
 Coeff:      0.265D-05-0.434D-05-0.251D-04-0.390D-04 0.381D-04 0.827D-03
 Coeff:      0.662D-04-0.571D-02 0.361D-02 0.383D-01-0.409D-01-0.271D+00
 Coeff:      0.167D+00 0.111D+01
 Gap=     0.387 Goal=   None    Shift=    0.000
 RMSDP=3.82D-08 MaxDP=2.09D-06 DE=-2.24D-11 OVMax= 1.33D-06

 Cycle  15  Pass 1  IDiag  1:
 E= -343.514213269812     Delta-E=       -0.000000000002 Rises=F Damp=F
 DIIS: error= 4.35D-08 at cycle  15 NSaved=  15.
 NSaved=15 IEnMin=15 EnMin= -343.514213269812     IErMin=15 ErrMin= 4.35D-08
 ErrMax= 4.35D-08 EMaxC= 1.00D-01 BMatC= 1.02D-13 BMatP= 5.77D-13
 IDIUse=1 WtCom= 1.00D+00 WtEn= 0.00D+00
 Coeff-Com: -0.348D-06 0.636D-06 0.411D-05 0.506D-05-0.264D-04-0.115D-03
 Coeff-Com:  0.506D-03 0.592D-03-0.366D-02-0.790D-02 0.472D-01 0.445D-01
 Coeff-Com: -0.339D+00 0.179D+00 0.108D+01
 Coeff:     -0.348D-06 0.636D-06 0.411D-05 0.506D-05-0.264D-04-0.115D-03
 Coeff:      0.506D-03 0.592D-03-0.366D-02-0.790D-02 0.472D-01 0.445D-01
 Coeff:     -0.339D+00 0.179D+00 0.108D+01
 Gap=     0.387 Goal=   None    Shift=    0.000
 RMSDP=1.84D-08 MaxDP=1.11D-06 DE=-1.93D-12 OVMax= 5.88D-07

 Cycle  16  Pass 1  IDiag  1:
 E= -343.514213269811     Delta-E=        0.000000000001 Rises=F Damp=F
 DIIS: error= 8.32D-09 at cycle  16 NSaved=  16.
 NSaved=16 IEnMin=15 EnMin= -343.514213269812     IErMin=16 ErrMin= 8.32D-09
 ErrMax= 8.32D-09 EMaxC= 1.00D-01 BMatC= 5.08D-15 BMatP= 1.02D-13
 IDIUse=1 WtCom= 1.00D+00 WtEn= 0.00D+00
 Coeff-Com: -0.263D-06 0.450D-06 0.238D-05 0.397D-05-0.648D-05-0.812D-04
 Coeff-Com:  0.681D-04 0.526D-03-0.934D-03-0.408D-02 0.110D-01 0.226D-01
 Coeff-Com: -0.619D-01-0.506D-01 0.120D+00 0.964D+00
 Coeff:     -0.263D-06 0.450D-06 0.238D-05 0.397D-05-0.648D-05-0.812D-04
 Coeff:      0.681D-04 0.526D-03-0.934D-03-0.408D-02 0.110D-01 0.226D-01
 Coeff:     -0.619D-01-0.506D-01 0.120D+00 0.964D+00
 Gap=     0.387 Goal=   None    Shift=    0.000
 RMSDP=9.51D-09 MaxDP=4.49D-07 DE= 1.36D-12 OVMax= 1.05D-07

 SCF Done:  E(RHF) =  -343.514213270     A.U. after   16 cycles
             Convg  =    0.9511D-08             -V/T =  2.0013
 KE= 3.430771454767D+02 PE=-1.444455550176D+03 EE= 4.368707718774D+02
 Leave Link  502 at Fri Dec  3 14:21:47 2021, MaxMem=  498073600 cpu:     161.3
 (Enter /apps/software//g09/l801.exe)
 ExpMin= 3.60D-02 ExpMax= 8.59D+03 ExpMxC= 1.30D+03 IAcc=3 IRadAn=         5 AccDes= 0.00D+00
 HarFok:  IExCor=  205 AccDes= 0.00D+00 IRadAn=         5 IDoV=-2
 ScaDFX=  1.000000  1.000000  1.000000  1.000000
 Largest valence mixing into a core orbital is  1.38D-04
 Largest core mixing into a valence orbital is  4.16D-05
 Range of M.O.s used for correlation:     9   218
 NBasis=   218 NAE=    28 NBE=    28 NFC=     8 NFV=     0
 NROrb=    210 NOA=    20 NOB=    20 NVA=   190 NVB=   190

 **** Warning!!: The largest alpha MO coefficient is  0.20465617D+03

 Leave Link  801 at Fri Dec  3 14:21:47 2021, MaxMem=  498073600 cpu:       1.4
 (Enter /apps/software//g09/l906.exe)
 Frozen-core derivative calculation, NFC=   8 NFV=   0.
 FulOut=F Deriv=T AODrv=F NAtomX=    14
   MMem=          87  MDisk=          20 MDiskD=          20
  W3Min=     1379504 MinDsk=     1920715 NBas6D=         226
 NBas2D=       25981    NTT=       25651    LW2=     2040000
    MDV=   497482235 MDiskM=       30449 NBas2p=       24994
 Fully direct method using O(ONN) memory.
 IMap=   1   2   3   4   5   6   7   8   9  10  11  12  13  14  15  16  17  18  19  20
 IMap=  21  22  23  24  25  26  27  28
 JobTyp=1 Pass  1:  I=   9 to  21 NPSUse=  6 ParTrn=T ParDer=T DoDerP=T.
 JobTyp=1 Pass  2:  I=  22 to  28 NPSUse=  6 ParTrn=T ParDer=T DoDerP=T.
 Spin components of T(2) and E(2):
     alpha-alpha T2 =       0.5617910449D-01 E2=     -0.1529899708D+00
     alpha-beta  T2 =       0.2931590927D+00 E2=     -0.8458585467D+00
     beta-beta   T2 =       0.5617910449D-01 E2=     -0.1529899708D+00
 The integrals were generated   2 times.
 ANorm=    0.1185545150D+01
 E2 =    -0.1151838488D+01 EUMP2 =    -0.34466605175802D+03
 Leave Link  906 at Fri Dec  3 14:22:34 2021, MaxMem=  498073600 cpu:     279.1
 (Enter /apps/software//g09/l1002.exe)
 Minotr:  Closed shell wavefunction.
          Computing MP2/KS-MP2 derivatives.
          Using Z-Vector for PSCF gradient.
          Skipping F1 and S1 gradient terms here.
          Frozen-core window.
          Direct CPHF calculation.
          Differentiating once with respect to electric field.
                with respect to dipole field.
          Electric field/nuclear overlap derivatives assumed to be zero.
          Using symmetry in CPHF.
          Requested convergence is 1.0D-10 RMS, and 1.0D-09 maximum.
          NewPWx=F KeepS1=T KeepF1=T KeepIn=T MapXYZ=F SortEE=F KeepMc=T.
          MDV=     498073484 using IRadAn=       0.
          Keep R1 ints in memory in canonical form, NReq=329821395.
 Symmetry not used in FoFDir.
 MinBra= 0 MaxBra= 2 Meth= 1.
 IRaf=       0 NMat=   1 IRICut=       1 DoRegI=T DoRafI=F ISym2E= 0 JSym2E=0.
          Solving linear equations separately, MaxMat=       0.
          There are     1 degrees of freedom in the 1st order CPHF.  IDoFFX=0.
 LinEq1:  Iter=  0 NonCon=     1 RMS=3.91D-03 Max=7.25D-02
 AX will form     1 AO Fock derivatives at one time.
 LinEq1:  Iter=  1 NonCon=     1 RMS=1.11D-03 Max=1.40D-02
 LinEq1:  Iter=  2 NonCon=     1 RMS=4.60D-04 Max=7.51D-03
 LinEq1:  Iter=  3 NonCon=     1 RMS=2.27D-04 Max=5.54D-03
 LinEq1:  Iter=  4 NonCon=     1 RMS=8.58D-05 Max=1.78D-03
 LinEq1:  Iter=  5 NonCon=     1 RMS=3.01D-05 Max=9.95D-04
 LinEq1:  Iter=  6 NonCon=     1 RMS=1.06D-05 Max=2.02D-04
 LinEq1:  Iter=  7 NonCon=     1 RMS=3.13D-06 Max=4.86D-05
 LinEq1:  Iter=  8 NonCon=     1 RMS=1.16D-06 Max=2.07D-05
 LinEq1:  Iter=  9 NonCon=     1 RMS=3.82D-07 Max=6.80D-06
 LinEq1:  Iter= 10 NonCon=     1 RMS=9.62D-08 Max=2.59D-06
 LinEq1:  Iter= 11 NonCon=     1 RMS=3.58D-08 Max=8.02D-07
 LinEq1:  Iter= 12 NonCon=     1 RMS=1.17D-08 Max=3.41D-07
 LinEq1:  Iter= 13 NonCon=     1 RMS=3.28D-09 Max=6.13D-08
 LinEq1:  Iter= 14 NonCon=     1 RMS=1.40D-09 Max=3.47D-08
 LinEq1:  Iter= 15 NonCon=     1 RMS=4.09D-10 Max=6.39D-09
 LinEq1:  Iter= 16 NonCon=     1 RMS=1.04D-10 Max=1.21D-09
 LinEq1:  Iter= 17 NonCon=     0 RMS=3.55D-11 Max=4.03D-10
 Linear equations converged to 1.000D-10 1.000D-09 after    17 iterations.
 End of Minotr Frequency-dependent properties file   721 does not exist.
 End of Minotr Frequency-dependent properties file   722 does not exist.
 Leave Link 1002 at Fri Dec  3 14:23:03 2021, MaxMem=  498073600 cpu:     173.8
 (Enter /apps/software//g09/l601.exe)
 Copying SCF densities to generalized density rwf, IOpCl= 0 IROHF=0.

 **********************************************************************

            Population analysis using the MP2 density.

 **********************************************************************

 Orbital symmetries:
       Occupied  (A') (A') (A') (A') (A') (A') (A') (A') (A') (A')
                 (A') (A') (A') (A') (A') (A') (A') (A') (A') (A')
                 (A') (A") (A') (A') (A") (A') (A") (A")
       Virtual   (A') (A') (A') (A") (A') (A') (A') (A") (A") (A')
                 (A') (A") (A") (A') (A') (A') (A") (A') (A') (A')
                 (A") (A') (A") (A') (A') (A") (A') (A") (A') (A')
                 (A') (A') (A') (A') (A') (A') (A') (A') (A") (A')
                 (A") (A') (A') (A') (A') (A') (A') (A') (A') (A')
                 (A') (A') (A') (A') (A') (A') (A") (A') (A') (A")
                 (A') (A') (A') (A") (A") (A") (A') (A") (A') (A")
                 (A') (A') (A') (A') (A') (A') (A') (A') (A') (A')
                 (A') (A') (A') (A') (A') (A') (A") (A') (A") (A')
                 (A') (A") (A") (A") (A") (A") (A') (A') (A") (A')
                 (A') (A') (A') (A') (A') (A") (A") (A') (A") (A')
                 (A') (A') (A') (A") (A') (A") (A") (A') (A") (A')
                 (A') (A') (A") (A') (A') (A") (A') (A') (A') (A")
                 (A") (A') (A') (A") (A") (A') (A') (A') (A') (A')
                 (A') (A') (A') (A') (A') (A") (A') (A') (A') (A")
                 (A') (A") (A") (A') (A') (A") (A") (A') (A") (A')
                 (A") (A') (A') (A") (A') (A') (A') (A') (A') (A')
                 (A') (A') (A') (A') (A') (A') (A') (A') (A') (A")
                 (A') (A') (A') (A') (A') (A') (A') (A') (A') (A')
 The electronic state is 1-A'.
 Alpha  occ. eigenvalues --  -20.55815 -11.34039 -11.26509 -11.26217 -11.25844
 Alpha  occ. eigenvalues --  -11.25695 -11.25512 -11.25336  -1.39626  -1.17596
 Alpha  occ. eigenvalues --   -1.05393  -1.03746  -0.89704  -0.84974  -0.79533
 Alpha  occ. eigenvalues --   -0.72340  -0.68218  -0.65714  -0.62400  -0.61867
 Alpha  occ. eigenvalues --   -0.60821  -0.55662  -0.53372  -0.51292  -0.50405
 Alpha  occ. eigenvalues --   -0.43080  -0.35737  -0.35398
 Alpha virt. eigenvalues --    0.03351   0.04316   0.05049   0.05843   0.06298
 Alpha virt. eigenvalues --    0.07318   0.08779   0.09157   0.10348   0.12360
 Alpha virt. eigenvalues --    0.12954   0.13364   0.14578   0.16162   0.16581
 Alpha virt. eigenvalues --    0.17149   0.17287   0.17401   0.17984   0.18726
 Alpha virt. eigenvalues --    0.19124   0.20033   0.20725   0.20885   0.21722
 Alpha virt. eigenvalues --    0.22044   0.22267   0.23431   0.23644   0.23981
 Alpha virt. eigenvalues --    0.25788   0.27530   0.29049   0.29535   0.30898
 Alpha virt. eigenvalues --    0.31484   0.33220   0.33883   0.35874   0.36859
 Alpha virt. eigenvalues --    0.37712   0.39993   0.40035   0.40897   0.41628
 Alpha virt. eigenvalues --    0.42473   0.45626   0.46041   0.47602   0.48902
 Alpha virt. eigenvalues --    0.49415   0.54508   0.55068   0.59499   0.63959
 Alpha virt. eigenvalues --    0.68676   0.70591   0.70781   0.71271   0.71937
 Alpha virt. eigenvalues --    0.72438   0.72810   0.73829   0.74085   0.77817
 Alpha virt. eigenvalues --    0.80214   0.81933   0.82780   0.84148   0.88185
 Alpha virt. eigenvalues --    0.90703   0.92130   0.93177   0.93789   0.95456
 Alpha virt. eigenvalues --    0.98723   1.00463   1.02644   1.03681   1.03826
 Alpha virt. eigenvalues --    1.06319   1.10181   1.11147   1.11675   1.12690
 Alpha virt. eigenvalues --    1.15479   1.16243   1.18420   1.22299   1.24603
 Alpha virt. eigenvalues --    1.25121   1.28560   1.30367   1.34381   1.36923
 Alpha virt. eigenvalues --    1.38168   1.43380   1.48222   1.50012   1.51957
 Alpha virt. eigenvalues --    1.59523   1.71159   1.73455   1.76171   1.77430
 Alpha virt. eigenvalues --    1.77761   1.81736   1.82124   1.82275   1.87964
 Alpha virt. eigenvalues --    1.89618   1.90556   1.93860   1.96767   1.98914
 Alpha virt. eigenvalues --    2.01268   2.03458   2.05163   2.07433   2.10619
 Alpha virt. eigenvalues --    2.13781   2.21134   2.21530   2.22970   2.23334
 Alpha virt. eigenvalues --    2.24582   2.26176   2.31353   2.33818   2.34033
 Alpha virt. eigenvalues --    2.36411   2.49796   2.50418   2.60249   2.65003
 Alpha virt. eigenvalues --    2.70666   2.74988   2.78124   2.80465   2.81106
 Alpha virt. eigenvalues --    2.93658   2.94702   2.97893   2.99716   3.00498
 Alpha virt. eigenvalues --    3.03148   3.03198   3.03965   3.06035   3.06682
 Alpha virt. eigenvalues --    3.07371   3.17336   3.19945   3.20729   3.25047
 Alpha virt. eigenvalues --    3.25087   3.27690   3.30050   3.33195   3.38866
 Alpha virt. eigenvalues --    3.46680   3.60075   3.61542   3.75410   3.75795
 Alpha virt. eigenvalues --    3.78466   3.88118   3.90430   3.92934   3.94748
 Alpha virt. eigenvalues --    4.03668   4.07715   4.33092   4.39764   4.43553
 Alpha virt. eigenvalues --    4.55116   4.56502   4.75638   5.25803   5.59027
 Alpha virt. eigenvalues --    5.73443   6.30831  24.73847  25.04825  25.10372
 Alpha virt. eigenvalues --   25.10770  25.21305  25.24914  25.34047  51.69379
          Condensed to atoms (all electrons):
              1          2          3          4          5          6
     1  C   13.118941  -9.430903   6.590773  -4.479958   4.673484  -5.168470
     2  C   -9.430903  27.055056 -12.971637   4.113341  -6.088392   6.227226
     3  C    6.590773 -12.971637  20.802764  -6.839078   5.027253  -5.274538
     4  C   -4.479958   4.113341  -6.839078  17.857753  -7.263038   4.154753
     5  C    4.673484  -6.088392   5.027253  -7.263038  13.374392  -4.780262
     6  C   -5.168470   6.227226  -5.274538   4.154753  -4.780262  11.174994
     7  C    0.491326  -1.960736  -2.115030  -2.019379   0.847287  -0.227742
     8  H   -0.139099   0.353120  -0.305309   0.816056  -0.430460   0.163359
     9  H    0.098542  -0.082337   0.093791  -0.234059   0.600524  -0.212104
    10  H   -0.268474   0.178764  -0.109998   0.142332  -0.250054   0.613331
    11  H    0.601841  -0.329732   0.179155  -0.027573   0.084509  -0.242871
    12  H   -0.398082   1.139019  -0.526383   0.176741  -0.154956   0.217366
    13  O    0.066641  -0.268187  -0.119340   0.012898   0.150343  -0.042346
    14  H    0.091083  -0.516974   0.032492   0.089697   0.124738  -0.099491
              7          8          9         10         11         12
     1  C    0.491326  -0.139099   0.098542  -0.268474   0.601841  -0.398082
     2  C   -1.960736   0.353120  -0.082337   0.178764  -0.329732   1.139019
     3  C   -2.115030  -0.305309   0.093791  -0.109998   0.179155  -0.526383
     4  C   -2.019379   0.816056  -0.234059   0.142332  -0.027573   0.176741
     5  C    0.847287  -0.430460   0.600524  -0.250054   0.084509  -0.154956
     6  C   -0.227742   0.163359  -0.212104   0.613331  -0.242871   0.217366
     7  C   10.939107  -0.218244   0.011446  -0.019345   0.005292  -0.149255
     8  H   -0.218244   0.564586  -0.021534   0.004221  -0.000437   0.008038
     9  H    0.011446  -0.021534   0.554014  -0.017235   0.000777  -0.001352
    10  H   -0.019345   0.004221  -0.017235   0.557270  -0.018374   0.005294
    11  H    0.005292  -0.000437   0.000777  -0.018374   0.561206  -0.028038
    12  H   -0.149255   0.008038  -0.001352   0.005294  -0.028038   0.604347
    13  O    0.307520   0.004431   0.001904  -0.000638   0.001294  -0.008682
    14  H    0.356532  -0.002241   0.002476  -0.001881   0.007861  -0.034316
             13         14
     1  C    0.066641   0.091083
     2  C   -0.268187  -0.516974
     3  C   -0.119340   0.032492
     4  C    0.012898   0.089697
     5  C    0.150343   0.124738
     6  C   -0.042346  -0.099491
     7  C    0.307520   0.356532
     8  H    0.004431  -0.002241
     9  H    0.001904   0.002476
    10  H   -0.000638  -0.001881
    11  H    0.001294   0.007861
    12  H   -0.008682  -0.034316
    13  O    8.127536  -0.031789
    14  H   -0.031789   0.830993
 Mulliken atomic charges:
              1
     1  C    0.152353
     2  C   -1.417628
     3  C    1.535086
     4  C   -0.500486
     5  C    0.084631
     6  C   -0.503206
     7  C   -0.248779
     8  H    0.203514
     9  H    0.205147
    10  H    0.184787
    11  H    0.205088
    12  H    0.150258
    13  O   -0.201586
    14  H    0.150819
 Sum of Mulliken atomic charges =   0.00000
 Mulliken charges with hydrogens summed into heavy atoms:
              1
     1  C    0.357442
     2  C   -1.267370
     3  C    1.535086
     4  C   -0.296971
     5  C    0.289777
     6  C   -0.318418
     7  C   -0.097960
    13  O   -0.201586
 Sum of Mulliken charges with hydrogens summed into heavy atoms =   0.00000
 Electronic spatial extent (au):  <R**2>=            938.8236
 Charge=              0.0000 electrons
 Dipole moment (field-independent basis, Debye):
    X=              2.1686    Y=             -2.3217    Z=              0.0000  Tot=              3.1769
 Quadrupole moment (field-independent basis, Debye-Ang):
   XX=            -45.5274   YY=            -48.0243   ZZ=            -50.2802
   XY=              6.0732   XZ=              0.0000   YZ=              0.0000
 Traceless Quadrupole moment (field-independent basis, Debye-Ang):
   XX=              2.4165   YY=             -0.0803   ZZ=             -2.3362
   XY=              6.0732   XZ=              0.0000   YZ=              0.0000
 Octapole moment (field-independent basis, Debye-Ang**2):
  XXX=              3.9216  YYY=            -21.1364  ZZZ=              0.0000  XYY=             16.3427
  XXY=            -10.1133  XXZ=              0.0000  XZZ=             -3.6098  YZZ=              7.7238
  YYZ=              0.0000  XYZ=              0.0000
 Hexadecapole moment (field-independent basis, Debye-Ang**3):
 XXXX=           -378.4851 YYYY=           -822.3818 ZZZZ=            -58.3788 XXXY=             98.7113
 XXXZ=              0.0000 YYYX=            131.6587 YYYZ=              0.0000 ZZZX=              0.0000
 ZZZY=              0.0000 XXYY=           -213.3600 XXZZ=            -83.1296 YYZZ=           -151.7422
 XXYZ=              0.0000 YYXZ=              0.0000 ZZXY=             29.2221
 N-N= 3.209934195525D+02 E-N=-1.445558518142D+03  KE= 3.445218619877D+02
 Symmetry A'   KE= 3.342826114729D+02
 Symmetry A"   KE= 1.023925051479D+01
 No NMR shielding tensors so no spin-rotation constants.
 Leave Link  601 at Fri Dec  3 14:23:04 2021, MaxMem=  498073600 cpu:       2.2
 (Enter /apps/software//g09/l9999.exe)
 1\1\GINC-DLT01\SP\RMP2-FC\6-311++G(d,p)\C7H6O1\ITAMAR\03-Dec-2021\0\\#
 P MP2/6-311++G** DENSITY=MP2\\X=CHO\\0,1\C,0,1.614935,-1.230301,0.\C,0
 ,1.327875,0.132276,0.\C,0,0.,0.572246,0.\C,0,-1.044507,-0.362437,0.\C,
 0,-0.757154,-1.720847,0.\C,0,0.571914,-2.155168,0.\C,0,-0.284706,2.025
 369,0.\H,0,-2.066389,-0.001933,0.\H,0,-1.562659,-2.446195,0.\H,0,0.792
 117,-3.216826,0.\H,0,2.643889,-1.570591,0.\H,0,2.132755,0.860849,0.\O,
 0,-1.391038,2.516976,0.\H,0,0.61845,2.672059,0.\\Version=EM64L-G09RevA
 .02\State=1-A'\HF=-343.5142133\MP2=-344.6660518\RMSD=9.511e-09\Dipole=
 0.8531934,-0.9134129,0.\Quadrupole=1.7966346,-0.0597149,-1.7369197,4.5
 153121,0.,0.\PG=CS [SG(C7H6O1)]\\@


 THE PROMISED LAND ALWAYS LIES ON THE OTHER SIDE OF A WILDERNESS.

                         -- HAVELOCK ELLIS
 Job cpu time:  0 days  0 hours 10 minutes 25.2 seconds.
 File lengths (MBytes):  RWF=     23 Int=      0 D2E=      0 Chk=      5 Scr=      1
 Normal termination of Gaussian 09 at Fri Dec  3 14:23:04 2021.
