 Entering Gaussian System, Link 0=g09
 Initial command:
 /apps/software//g09/l1.exe /scratch/itamar/2475.cluster.abaxnet/Gau-29862.inp -scrdir=/scratch/itamar/2475.cluster.abaxnet/
 Entering Link 1 = /apps/software//g09/l1.exe PID=     29863.
  
 Copyright (c) 1988,1990,1992,1993,1995,1998,2003,2009, Gaussian, Inc.
                  All Rights Reserved.
  
 This is part of the Gaussian(R) 09 program.  It is based on
 the Gaussian(R) 03 system (copyright 2003, Gaussian, Inc.),
 the Gaussian(R) 98 system (copyright 1998, Gaussian, Inc.),
 the Gaussian(R) 94 system (copyright 1995, Gaussian, Inc.),
 the Gaussian 92(TM) system (copyright 1992, Gaussian, Inc.),
 the Gaussian 90(TM) system (copyright 1990, Gaussian, Inc.),
 the Gaussian 88(TM) system (copyright 1988, Gaussian, Inc.),
 the Gaussian 86(TM) system (copyright 1986, Carnegie Mellon
 University), and the Gaussian 82(TM) system (copyright 1983,
 Carnegie Mellon University). Gaussian is a federally registered
 trademark of Gaussian, Inc.
  
 This software contains proprietary and confidential information,
 including trade secrets, belonging to Gaussian, Inc.
  
 This software is provided under written license and may be
 used, copied, transmitted, or stored only in accord with that
 written license.
  
 The following legend is applicable only to US Government
 contracts under FAR:
  
                    RESTRICTED RIGHTS LEGEND
  
 Use, reproduction and disclosure by the US Government is
 subject to restrictions as set forth in subparagraphs (a)
 and (c) of the Commercial Computer Software - Restricted
 Rights clause in FAR 52.227-19.
  
 Gaussian, Inc.
 340 Quinnipiac St., Bldg. 40, Wallingford CT 06492
  
  
 ---------------------------------------------------------------
 Warning -- This program may not be used in any manner that
 competes with the business of Gaussian, Inc. or will provide
 assistance to any competitor of Gaussian, Inc.  The licensee
 of this program is prohibited from giving any competitor of
 Gaussian, Inc. access to this program.  By using this program,
 the user acknowledges that Gaussian, Inc. is engaged in the
 business of creating and licensing software in the field of
 computational chemistry and represents and warrants to the
 licensee that it is not a competitor of Gaussian, Inc. and that
 it will not use this program in any manner prohibited above.
 ---------------------------------------------------------------
  

 Cite this work as:
 Gaussian 09, Revision A.02,
 M. J. Frisch, G. W. Trucks, H. B. Schlegel, G. E. Scuseria, 
 M. A. Robb, J. R. Cheeseman, G. Scalmani, V. Barone, B. Mennucci, 
 G. A. Petersson, H. Nakatsuji, M. Caricato, X. Li, H. P. Hratchian, 
 A. F. Izmaylov, J. Bloino, G. Zheng, J. L. Sonnenberg, M. Hada, 
 M. Ehara, K. Toyota, R. Fukuda, J. Hasegawa, M. Ishida, T. Nakajima, 
 Y. Honda, O. Kitao, H. Nakai, T. Vreven, J. A. Montgomery, Jr., 
 J. E. Peralta, F. Ogliaro, M. Bearpark, J. J. Heyd, E. Brothers, 
 K. N. Kudin, V. N. Staroverov, R. Kobayashi, J. Normand, 
 K. Raghavachari, A. Rendell, J. C. Burant, S. S. Iyengar, J. Tomasi, 
 M. Cossi, N. Rega, J. M. Millam, M. Klene, J. E. Knox, J. B. Cross, 
 V. Bakken, C. Adamo, J. Jaramillo, R. Gomperts, R. E. Stratmann, 
 O. Yazyev, A. J. Austin, R. Cammi, C. Pomelli, J. W. Ochterski, 
 R. L. Martin, K. Morokuma, V. G. Zakrzewski, G. A. Voth, 
 P. Salvador, J. J. Dannenberg, S. Dapprich, A. D. Daniels, 
 O. Farkas, J. B. Foresman, J. V. Ortiz, J. Cioslowski, 
 and D. J. Fox, Gaussian, Inc., Wallingford CT, 2009.
 
 ******************************************
 Gaussian 09:  EM64L-G09RevA.02 11-Jun-2009
                 3-Dec-2021 
 ******************************************
 %Mem=3800MB
 %NProcShared=6
 Will use up to    6 processors via shared memory.
 %chk=/home/itamar/Aromaticity-test-set/T8-ring-size-atomic-size-depend/C8H8_2+/c
 8h8_2+.chk
 -----------------------------
 #P MP2/6-311++G** DENSITY=MP2
 -----------------------------
 1/30=1,38=1/1;
 2/12=2,17=6,18=5,40=1/2;
 3/5=4,6=6,7=1111,11=9,16=1,25=1,30=1,71=1/1,2,3;
 4//1;
 5/5=2,38=5/2;
 8/6=4,10=2/1;
 9/15=1,16=-3/6;
 10/5=1,13=10/2;
 6/7=2,8=2,9=2,10=2,22=2/1;
 99/5=1,9=1/99;
 Leave Link    1 at Fri Dec  3 16:50:34 2021, MaxMem=  498073600 cpu:       0.2
 (Enter /apps/software//g09/l101.exe)
 -------
 C8H8_2+
 -------
 Symbolic Z-matrix:
 Charge =  2 Multiplicity = 1
 6                     0.70404   1.69971   0. 
 6                    -0.70404   1.69971   0. 
 6                    -1.69971   0.70404   0. 
 6                    -1.69972  -0.70404   0. 
 6                    -0.70404  -1.69971   0. 
 6                     0.70404  -1.69972   0. 
 6                     1.69971  -0.70404   0. 
 6                     1.69972   0.70404   0. 
 1                     1.12063   2.70542   0. 
 1                    -1.12062   2.70542   0. 
 1                    -2.70542   1.12062   0. 
 1                    -2.70542  -1.12063   0. 
 1                    -1.12063  -2.70542   0. 
 1                     1.12062  -2.70542   0. 
 1                     2.70541  -1.12062   0. 
 1                     2.70542   1.12063   0. 
 
 NAtoms=     16 NQM=     16 NQMF=      0 NMic=      0 NMicF=      0 NTot=     16.
                    Isotopes and Nuclear Properties:
 (Nuclear quadrupole moments (NQMom) in fm**2, nuclear magnetic moments (NMagM)
  in nuclear magnetons)

  Atom         1           2           3           4           5           6           7           8           9          10
 IAtWgt=          12          12          12          12          12          12          12          12           1           1
 AtmWgt=  12.0000000  12.0000000  12.0000000  12.0000000  12.0000000  12.0000000  12.0000000  12.0000000   1.0078250   1.0078250
 NucSpn=           0           0           0           0           0           0           0           0           1           1
 AtZEff=   0.0000000   0.0000000   0.0000000   0.0000000   0.0000000   0.0000000   0.0000000   0.0000000   0.0000000   0.0000000
 NQMom=    0.0000000   0.0000000   0.0000000   0.0000000   0.0000000   0.0000000   0.0000000   0.0000000   0.0000000   0.0000000
 NMagM=    0.0000000   0.0000000   0.0000000   0.0000000   0.0000000   0.0000000   0.0000000   0.0000000   2.7928460   2.7928460

  Atom        11          12          13          14          15          16
 IAtWgt=           1           1           1           1           1           1
 AtmWgt=   1.0078250   1.0078250   1.0078250   1.0078250   1.0078250   1.0078250
 NucSpn=           1           1           1           1           1           1
 AtZEff=   0.0000000   0.0000000   0.0000000   0.0000000   0.0000000   0.0000000
 NQMom=    0.0000000   0.0000000   0.0000000   0.0000000   0.0000000   0.0000000
 NMagM=    2.7928460   2.7928460   2.7928460   2.7928460   2.7928460   2.7928460
 Leave Link  101 at Fri Dec  3 16:50:34 2021, MaxMem=  498073600 cpu:       0.4
 (Enter /apps/software//g09/l202.exe)
                          Input orientation:                          
 ---------------------------------------------------------------------
 Center     Atomic      Atomic             Coordinates (Angstroms)
 Number     Number       Type             X           Y           Z
 ---------------------------------------------------------------------
      1          6           0        0.704042    1.699710    0.000000
      2          6           0       -0.704041    1.699714    0.000000
      3          6           0       -1.699710    0.704040    0.000000
      4          6           0       -1.699715   -0.704042    0.000000
      5          6           0       -0.704041   -1.699711    0.000000
      6          6           0        0.704041   -1.699715    0.000000
      7          6           0        1.699707   -0.704039    0.000000
      8          6           0        1.699718    0.704044    0.000000
      9          1           0        1.120629    2.705415    0.000000
     10          1           0       -1.120624    2.705420    0.000000
     11          1           0       -2.705418    1.120622    0.000000
     12          1           0       -2.705418   -1.120632    0.000000
     13          1           0       -1.120627   -2.705417    0.000000
     14          1           0        1.120623   -2.705421    0.000000
     15          1           0        2.705413   -1.120625    0.000000
     16          1           0        2.705422    1.120629    0.000000
 ---------------------------------------------------------------------
                    Distance matrix (angstroms):
                    1          2          3          4          5
     1  C    0.000000
     2  C    1.408083   0.000000
     3  C    2.601804   1.408092   0.000000
     4  C    3.399422   2.601809   1.408082   0.000000
     5  C    3.679506   3.399425   2.601802   1.408092   0.000000
     6  C    3.399425   3.679513   3.399420   2.601809   1.408082
     7  C    2.601799   3.399417   3.679500   3.399422   2.601801
     8  C    1.408091   2.601810   3.399428   3.679518   3.399426
     9  H    1.088571   2.083472   3.458296   4.424787   4.768077
    10  H    2.083473   1.088571   2.083474   3.458291   4.424785
    11  H    3.458289   2.083472   1.088572   2.083468   3.458293
    12  H    4.424788   3.458303   2.083477   1.088571   2.083469
    13  H    4.768077   4.424785   3.458285   2.083469   1.088572
    14  H    4.424785   4.768083   4.424783   3.458298   2.083471
    15  H    3.458291   4.424781   4.768072   4.424782   3.458282
    16  H    2.083472   3.458291   4.424786   4.768087   4.424789
                    6          7          8          9         10
     6  C    0.000000
     7  C    1.408091   0.000000
     8  C    2.601813   1.408083   0.000000
     9  H    4.424784   3.458281   2.083466   0.000000
    10  H    4.768083   4.424780   3.458299   2.241253   0.000000
    11  H    4.424784   4.768072   4.424789   4.141281   2.241240
    12  H    3.458287   4.424780   4.768088   5.410848   4.141286
    13  H    2.083471   3.458294   4.424790   5.856648   5.410837
    14  H    1.088570   2.083475   3.458295   5.410836   5.856653
    15  H    2.083467   1.088572   2.083468   4.141271   5.410839
    16  H    3.458304   2.083477   1.088570   2.241231   4.141279
                   11         12         13         14         15
    11  H    0.000000
    12  H    2.241254   0.000000
    13  H    4.141272   2.241229   0.000000
    14  H    5.410840   4.141273   2.241250   0.000000
    15  H    5.856644   5.410831   4.141274   2.241236   0.000000
    16  H    5.410840   5.856658   5.410848   4.141286   2.241254
                   16
    16  H    0.000000
 This structure is nearly, but not quite of a higher symmetry.
 Consider Symm=Loose if the higher symmetry is desired.
 Stoichiometry    C8H8(2+)
 Framework group  CS[SG(C8H8)]
 Deg. of freedom    29
 Full point group                 CS      NOp   2
 Largest Abelian subgroup         CS      NOp   2
 Largest concise Abelian subgroup C1      NOp   1
                         Standard orientation:                         
 ---------------------------------------------------------------------
 Center     Atomic      Atomic             Coordinates (Angstroms)
 Number     Number       Type             X           Y           Z
 ---------------------------------------------------------------------
      1          6           0        1.699712   -0.704037    0.000000
      2          6           0        1.699712    0.704046    0.000000
      3          6           0        0.704035    1.699712    0.000000
      4          6           0       -0.704047    1.699713    0.000000
      5          6           0       -1.699713    0.704036    0.000000
      6          6           0       -1.699713   -0.704046    0.000000
      7          6           0       -0.704034   -1.699709    0.000000
      8          6           0        0.704049   -1.699716    0.000000
      9          1           0        2.705418   -1.120621    0.000000
     10          1           0        2.705417    1.120632    0.000000
     11          1           0        1.120614    2.705421    0.000000
     12          1           0       -1.120640    2.705415    0.000000
     13          1           0       -2.705420    1.120619    0.000000
     14          1           0       -2.705418   -1.120631    0.000000
     15          1           0       -1.120617   -2.705416    0.000000
     16          1           0        1.120637   -2.705419    0.000000
 ---------------------------------------------------------------------
 Rotational constants (GHZ):      2.5649342      2.5649265      1.2824652
 Leave Link  202 at Fri Dec  3 16:50:34 2021, MaxMem=  498073600 cpu:       0.0
 (Enter /apps/software//g09/l301.exe)
 Standard basis: 6-311++G(d,p) (5D, 7F)
 Ernie: Thresh=  0.10000D-02 Tol=  0.10000D-05 Strict=F.
 There are   176 symmetry adapted basis functions of A'  symmetry.
 There are    56 symmetry adapted basis functions of A"  symmetry.
 Integral buffers will be    131072 words long.
 Raffenetti 1 integral format.
 Two-electron integral symmetry is turned on.
   232 basis functions,   360 primitive gaussians,   240 cartesian basis functions
    27 alpha electrons       27 beta electrons
       nuclear repulsion energy       315.6211386312 Hartrees.
 IExCor=    0 DFT=F Ex=HF Corr=None ExCW=0 ScaHFX=  1.000000
 ScaDFX=  1.000000  1.000000  1.000000  1.000000 ScalE2=  1.000000  1.000000
 IRadAn=      0 IRanWt=     -1 IRanGd=            0 ICorTp=0
 NAtoms=   16 NActive=   16 NUniq=   16 SFac= 7.50D-01 NAtFMM=   80 NAOKFM=F Big=F
 Leave Link  301 at Fri Dec  3 16:50:34 2021, MaxMem=  498073600 cpu:       0.4
 (Enter /apps/software//g09/l302.exe)
 NPDir=0 NMtPBC=     1 NCelOv=     1 NCel=       1 NClECP=     1 NCelD=      1
         NCelK=      1 NCelE2=     1 NClLst=     1 CellRange=     0.0.
 One-electron integrals computed using PRISM.
 NBasis=   232 RedAO= T  NBF=   176    56
 NBsUse=   230 1.00D-06 NBFU=   174    56
 Leave Link  302 at Fri Dec  3 16:50:34 2021, MaxMem=  498073600 cpu:       1.3
 (Enter /apps/software//g09/l303.exe)
 DipDrv:  MaxL=1.
 Leave Link  303 at Fri Dec  3 16:50:34 2021, MaxMem=  498073600 cpu:       0.3
 (Enter /apps/software//g09/l401.exe)
 Harris functional with IExCor=  205 diagonalized for initial guess.
 ExpMin= 3.60D-02 ExpMax= 4.56D+03 ExpMxC= 6.82D+02 IAcc=3 IRadAn=         0 AccDes= 0.00D+00
 HarFok:  IExCor=  205 AccDes= 0.00D+00 IRadAn=         0 IDoV= 1
 ScaDFX=  1.000000  1.000000  1.000000  1.000000
 FoFCou: FMM=F IPFlag=           0 FMFlag=      100000 FMFlg1=           0
         NFxFlg=           0 DoJE=T BraDBF=F KetDBF=T FulRan=T
         Omega=  0.000000  0.000000  1.000000  0.000000  0.000000 ICntrl=     500 IOpCl=  0
         NMat0=    1 NMatS0=    1 NMatT0=    0 NMatD0=    1 NMtDS0=    0 NMtDT0=    0
         I1Cent=           4 NGrid=           0.
 Petite list used in FoFCou.
 Harris En= -307.483679289303    
 Initial guess orbital symmetries:
       Occupied  (A') (A') (A') (A') (A') (A') (A') (A') (A') (A')
                 (A') (A') (A') (A') (A') (A') (A') (A') (A') (A')
                 (A') (A') (A") (A') (A') (A") (A")
       Virtual   (A") (A") (A") (A") (A') (A') (A') (A") (A') (A')
                 (A') (A') (A') (A") (A") (A") (A') (A') (A') (A')
                 (A') (A') (A') (A') (A') (A') (A') (A") (A") (A')
                 (A') (A') (A') (A') (A") (A") (A') (A') (A') (A')
                 (A') (A') (A') (A") (A') (A') (A') (A') (A') (A')
                 (A') (A') (A') (A') (A') (A') (A') (A') (A') (A')
                 (A") (A') (A') (A') (A") (A") (A') (A') (A') (A')
                 (A') (A") (A") (A") (A") (A") (A') (A') (A') (A')
                 (A') (A') (A') (A') (A') (A') (A') (A') (A') (A')
                 (A') (A") (A') (A') (A") (A') (A") (A") (A') (A')
                 (A") (A") (A") (A") (A') (A') (A') (A') (A') (A')
                 (A') (A') (A") (A") (A') (A') (A") (A') (A') (A")
                 (A") (A') (A') (A") (A") (A") (A') (A') (A") (A")
                 (A') (A') (A') (A') (A') (A') (A') (A') (A') (A')
                 (A') (A") (A") (A") (A") (A") (A') (A') (A') (A')
                 (A') (A") (A') (A') (A") (A') (A') (A') (A') (A')
                 (A') (A') (A") (A") (A') (A') (A') (A") (A") (A')
                 (A') (A') (A") (A") (A') (A') (A") (A') (A') (A')
                 (A') (A') (A') (A') (A') (A') (A') (A') (A') (A')
                 (A') (A') (A') (A') (A') (A') (A') (A') (A') (A')
                 (A') (A') (A')
 The electronic state of the initial guess is 1-A'.
 Leave Link  401 at Fri Dec  3 16:50:35 2021, MaxMem=  498073600 cpu:       4.1
 (Enter /apps/software//g09/l502.exe)
 Closed shell SCF:
 Requested convergence on RMS density matrix=1.00D-08 within 128 cycles.
 Requested convergence on MAX density matrix=1.00D-06.
 Requested convergence on             energy=1.00D-06.
 No special actions if energy rises.
 Using DIIS extrapolation, IDIIS=  1040.
 Integral symmetry usage will be decided dynamically.
 Keep R1 ints in memory in canonical form, NReq=425390580.
 IEnd=      194266 IEndB=      194266 NGot=   498073600 MDV=    79756127
 LenX=    79756127 LenY=    79698086
 Symmetry not used in FoFDir.
 MinBra= 0 MaxBra= 2 Meth= 1.
 IRaf=       0 NMat=   1 IRICut=       1 DoRegI=T DoRafI=F ISym2E= 0 JSym2E=0.

 Cycle   1  Pass 1  IDiag  1:
 E= -306.721490106887    
 DIIS: error= 5.93D-02 at cycle   1 NSaved=   1.
 NSaved= 1 IEnMin= 1 EnMin= -306.721490106887     IErMin= 1 ErrMin= 5.93D-02
 ErrMax= 5.93D-02 EMaxC= 1.00D-01 BMatC= 4.90D-01 BMatP= 4.90D-01
 IDIUse=3 WtCom= 4.07D-01 WtEn= 5.93D-01
 Coeff-Com:  0.100D+01
 Coeff-En:   0.100D+01
 Coeff:      0.100D+01
 Gap=     0.367 Goal=   None    Shift=    0.000
 GapD=    0.367 DampG=1.000 DampE=0.500 DampFc=0.5000 IDamp=-1.
 Damping current iteration by 5.00D-01
 RMSDP=5.59D-03 MaxDP=8.52D-02              OVMax= 8.53D-02

 Cycle   2  Pass 1  IDiag  1:
 E= -306.809551467273     Delta-E=       -0.088061360385 Rises=F Damp=T
 DIIS: error= 3.31D-02 at cycle   2 NSaved=   2.
 NSaved= 2 IEnMin= 2 EnMin= -306.809551467273     IErMin= 2 ErrMin= 3.31D-02
 ErrMax= 3.31D-02 EMaxC= 1.00D-01 BMatC= 1.33D-01 BMatP= 4.90D-01
 IDIUse=3 WtCom= 6.69D-01 WtEn= 3.31D-01
 Coeff-Com: -0.104D+01 0.204D+01
 Coeff-En:   0.000D+00 0.100D+01
 Coeff:     -0.694D+00 0.169D+01
 Gap=     0.361 Goal=   None    Shift=    0.000
 RMSDP=3.68D-03 MaxDP=1.19D-01 DE=-8.81D-02 OVMax= 1.35D-02

 Cycle   3  Pass 1  IDiag  1:
 E= -306.898758878023     Delta-E=       -0.089207410750 Rises=F Damp=F
 DIIS: error= 1.99D-03 at cycle   3 NSaved=   3.
 NSaved= 3 IEnMin= 3 EnMin= -306.898758878023     IErMin= 3 ErrMin= 1.99D-03
 ErrMax= 1.99D-03 EMaxC= 1.00D-01 BMatC= 3.24D-04 BMatP= 1.33D-01
 IDIUse=3 WtCom= 9.80D-01 WtEn= 1.99D-02
 Coeff-Com: -0.113D-01-0.670D-02 0.102D+01
 Coeff-En:   0.000D+00 0.000D+00 0.100D+01
 Coeff:     -0.110D-01-0.657D-02 0.102D+01
 Gap=     0.360 Goal=   None    Shift=    0.000
 RMSDP=3.07D-04 MaxDP=8.37D-03 DE=-8.92D-02 OVMax= 4.45D-03

 Cycle   4  Pass 1  IDiag  1:
 E= -306.899149862539     Delta-E=       -0.000390984516 Rises=F Damp=F
 DIIS: error= 8.78D-04 at cycle   4 NSaved=   4.
 NSaved= 4 IEnMin= 4 EnMin= -306.899149862539     IErMin= 4 ErrMin= 8.78D-04
 ErrMax= 8.78D-04 EMaxC= 1.00D-01 BMatC= 2.05D-05 BMatP= 3.24D-04
 IDIUse=3 WtCom= 9.91D-01 WtEn= 8.78D-03
 Coeff-Com:  0.287D-01-0.579D-01 0.394D-01 0.990D+00
 Coeff-En:   0.000D+00 0.000D+00 0.000D+00 0.100D+01
 Coeff:      0.284D-01-0.574D-01 0.390D-01 0.990D+00
 Gap=     0.360 Goal=   None    Shift=    0.000
 RMSDP=1.15D-04 MaxDP=4.01D-03 DE=-3.91D-04 OVMax= 1.16D-03

 Cycle   5  Pass 1  IDiag  1:
 E= -306.899178514246     Delta-E=       -0.000028651707 Rises=F Damp=F
 DIIS: error= 1.18D-04 at cycle   5 NSaved=   5.
 NSaved= 5 IEnMin= 5 EnMin= -306.899178514246     IErMin= 5 ErrMin= 1.18D-04
 ErrMax= 1.18D-04 EMaxC= 1.00D-01 BMatC= 8.74D-07 BMatP= 2.05D-05
 IDIUse=3 WtCom= 9.99D-01 WtEn= 1.18D-03
 Coeff-Com:  0.798D-03-0.140D-04-0.598D-01-0.529D-01 0.111D+01
 Coeff-En:   0.000D+00 0.000D+00 0.000D+00 0.000D+00 0.100D+01
 Coeff:      0.797D-03-0.140D-04-0.597D-01-0.528D-01 0.111D+01
 Gap=     0.360 Goal=   None    Shift=    0.000
 RMSDP=3.30D-05 MaxDP=1.12D-03 DE=-2.87D-05 OVMax= 3.72D-04

 Cycle   6  Pass 1  IDiag  1:
 E= -306.899180326109     Delta-E=       -0.000001811862 Rises=F Damp=F
 DIIS: error= 1.35D-05 at cycle   6 NSaved=   6.
 NSaved= 6 IEnMin= 6 EnMin= -306.899180326109     IErMin= 6 ErrMin= 1.35D-05
 ErrMax= 1.35D-05 EMaxC= 1.00D-01 BMatC= 6.74D-09 BMatP= 8.74D-07
 IDIUse=1 WtCom= 1.00D+00 WtEn= 0.00D+00
 Coeff-Com: -0.707D-04-0.384D-04 0.906D-02-0.531D-02-0.162D+00 0.116D+01
 Coeff:     -0.707D-04-0.384D-04 0.906D-02-0.531D-02-0.162D+00 0.116D+01
 Gap=     0.360 Goal=   None    Shift=    0.000
 RMSDP=3.88D-06 MaxDP=1.34D-04 DE=-1.81D-06 OVMax= 3.99D-05

 Cycle   7  Pass 1  IDiag  1:
 E= -306.899180339785     Delta-E=       -0.000000013677 Rises=F Damp=F
 DIIS: error= 1.37D-06 at cycle   7 NSaved=   7.
 NSaved= 7 IEnMin= 7 EnMin= -306.899180339785     IErMin= 7 ErrMin= 1.37D-06
 ErrMax= 1.37D-06 EMaxC= 1.00D-01 BMatC= 8.31D-11 BMatP= 6.74D-09
 IDIUse=1 WtCom= 1.00D+00 WtEn= 0.00D+00
 Coeff-Com:  0.242D-05 0.190D-04-0.147D-02 0.184D-02 0.257D-01-0.273D+00
 Coeff-Com:  0.125D+01
 Coeff:      0.242D-05 0.190D-04-0.147D-02 0.184D-02 0.257D-01-0.273D+00
 Coeff:      0.125D+01
 Gap=     0.360 Goal=   None    Shift=    0.000
 RMSDP=3.19D-07 MaxDP=8.26D-06 DE=-1.37D-08 OVMax= 5.13D-06

 Cycle   8  Pass 1  IDiag  1:
 E= -306.899180339976     Delta-E=       -0.000000000191 Rises=F Damp=F
 DIIS: error= 9.77D-08 at cycle   8 NSaved=   8.
 NSaved= 8 IEnMin= 8 EnMin= -306.899180339976     IErMin= 8 ErrMin= 9.77D-08
 ErrMax= 9.77D-08 EMaxC= 1.00D-01 BMatC= 7.29D-13 BMatP= 8.31D-11
 IDIUse=1 WtCom= 1.00D+00 WtEn= 0.00D+00
 Coeff-Com: -0.535D-06-0.313D-05 0.266D-03-0.409D-03-0.439D-02 0.519D-01
 Coeff-Com: -0.280D+00 0.123D+01
 Coeff:     -0.535D-06-0.313D-05 0.266D-03-0.409D-03-0.439D-02 0.519D-01
 Coeff:     -0.280D+00 0.123D+01
 Gap=     0.360 Goal=   None    Shift=    0.000
 RMSDP=3.75D-08 MaxDP=4.75D-07 DE=-1.91D-10 OVMax= 3.25D-07

 Cycle   9  Pass 1  IDiag  1:
 E= -306.899180339975     Delta-E=        0.000000000001 Rises=F Damp=F
 DIIS: error= 2.23D-08 at cycle   9 NSaved=   9.
 NSaved= 9 IEnMin= 8 EnMin= -306.899180339976     IErMin= 9 ErrMin= 2.23D-08
 ErrMax= 2.23D-08 EMaxC= 1.00D-01 BMatC= 4.18D-14 BMatP= 7.29D-13
 IDIUse=1 WtCom= 1.00D+00 WtEn= 0.00D+00
 Coeff-Com: -0.255D-06-0.848D-06 0.854D-04-0.128D-03-0.142D-02 0.166D-01
 Coeff-Com: -0.869D-01 0.316D+00 0.755D+00
 Coeff:     -0.255D-06-0.848D-06 0.854D-04-0.128D-03-0.142D-02 0.166D-01
 Coeff:     -0.869D-01 0.316D+00 0.755D+00
 Gap=     0.360 Goal=   None    Shift=    0.000
 RMSDP=5.50D-09 MaxDP=8.87D-08 DE= 1.25D-12 OVMax= 1.20D-07

 SCF Done:  E(RHF) =  -306.899180340     A.U. after    9 cycles
             Convg  =    0.5501D-08             -V/T =  2.0013
 KE= 3.065081755675D+02 PE=-1.323254482118D+03 EE= 3.942259875796D+02
 Leave Link  502 at Fri Dec  3 16:50:51 2021, MaxMem=  498073600 cpu:      95.2
 (Enter /apps/software//g09/l801.exe)
 ExpMin= 3.60D-02 ExpMax= 4.56D+03 ExpMxC= 6.82D+02 IAcc=3 IRadAn=         5 AccDes= 0.00D+00
 HarFok:  IExCor=  205 AccDes= 0.00D+00 IRadAn=         5 IDoV=-2
 ScaDFX=  1.000000  1.000000  1.000000  1.000000
 Largest valence mixing into a core orbital is  1.61D-04
 Largest core mixing into a valence orbital is  4.95D-05
 Range of M.O.s used for correlation:     9   230
 NBasis=   232 NAE=    27 NBE=    27 NFC=     8 NFV=     0
 NROrb=    222 NOA=    19 NOB=    19 NVA=   203 NVB=   203

 **** Warning!!: The largest alpha MO coefficient is  0.21468822D+03

 Leave Link  801 at Fri Dec  3 16:50:51 2021, MaxMem=  498073600 cpu:       1.5
 (Enter /apps/software//g09/l906.exe)
 Frozen-core derivative calculation, NFC=   8 NFV=   0.
 FulOut=F Deriv=T AODrv=F NAtomX=    16
   MMem=          72  MDisk=          19 MDiskD=          19
  W3Min=     1490400 MinDsk=     2101400 NBas6D=         240
 NBas2D=       29256    NTT=       28920    LW2=     2040000
    MDV=   497398763 MDiskM=       28668 NBas2p=       28332
 Fully direct method using O(ONN) memory.
 IMap=   1   2   3   4   5   6   7   8   9  10  11  12  13  14  15  16  17  18  19  20
 IMap=  21  22  23  24  25  26  27
 JobTyp=1 Pass  1:  I=   9 to  18 NPSUse=  6 ParTrn=T ParDer=T DoDerP=T.
 JobTyp=1 Pass  2:  I=  19 to  27 NPSUse=  6 ParTrn=T ParDer=T DoDerP=T.
 Spin components of T(2) and E(2):
     alpha-alpha T2 =       0.5622429778D-01 E2=     -0.1351871395D+00
     alpha-beta  T2 =       0.3046157869D+00 E2=     -0.7907407638D+00
     beta-beta   T2 =       0.5622429778D-01 E2=     -0.1351871395D+00
 The integrals were generated   2 times.
 ANorm=    0.1190405134D+01
 E2 =    -0.1061115043D+01 EUMP2 =    -0.30796029538280D+03
 Leave Link  906 at Fri Dec  3 16:51:31 2021, MaxMem=  498073600 cpu:     241.3
 (Enter /apps/software//g09/l1002.exe)
 Minotr:  Closed shell wavefunction.
          Computing MP2/KS-MP2 derivatives.
          Using Z-Vector for PSCF gradient.
          Skipping F1 and S1 gradient terms here.
          Frozen-core window.
          Direct CPHF calculation.
          Differentiating once with respect to electric field.
                with respect to dipole field.
          Electric field/nuclear overlap derivatives assumed to be zero.
          Using symmetry in CPHF.
          Requested convergence is 1.0D-10 RMS, and 1.0D-09 maximum.
          NewPWx=F KeepS1=T KeepF1=T KeepIn=T MapXYZ=F SortEE=F KeepMc=T.
          MDV=     498073468 using IRadAn=       0.
          Keep R1 ints in memory in canonical form, NReq=419019439.
 Symmetry not used in FoFDir.
 MinBra= 0 MaxBra= 2 Meth= 1.
 IRaf=       0 NMat=   1 IRICut=       1 DoRegI=T DoRafI=F ISym2E= 0 JSym2E=0.
          Solving linear equations separately, MaxMat=       0.
          There are     1 degrees of freedom in the 1st order CPHF.  IDoFFX=0.
 LinEq1:  Iter=  0 NonCon=     1 RMS=3.34D-03 Max=9.70D-02
 AX will form     1 AO Fock derivatives at one time.
 LinEq1:  Iter=  1 NonCon=     1 RMS=6.68D-04 Max=1.24D-02
 LinEq1:  Iter=  2 NonCon=     1 RMS=1.38D-04 Max=4.05D-03
 LinEq1:  Iter=  3 NonCon=     1 RMS=2.67D-05 Max=7.45D-04
 LinEq1:  Iter=  4 NonCon=     1 RMS=3.16D-06 Max=6.08D-05
 LinEq1:  Iter=  5 NonCon=     1 RMS=2.62D-07 Max=5.03D-06
 LinEq1:  Iter=  6 NonCon=     1 RMS=1.74D-08 Max=4.08D-07
 LinEq1:  Iter=  7 NonCon=     1 RMS=2.01D-09 Max=5.82D-08
 LinEq1:  Iter=  8 NonCon=     1 RMS=6.53D-10 Max=2.73D-08
 LinEq1:  Iter=  9 NonCon=     1 RMS=3.24D-10 Max=1.10D-08
 LinEq1:  Iter= 10 NonCon=     0 RMS=7.44D-11 Max=9.95D-10
 Linear equations converged to 1.000D-10 1.000D-09 after    10 iterations.
 End of Minotr Frequency-dependent properties file   721 does not exist.
 End of Minotr Frequency-dependent properties file   722 does not exist.
 Leave Link 1002 at Fri Dec  3 16:51:49 2021, MaxMem=  498073600 cpu:     107.9
 (Enter /apps/software//g09/l601.exe)
 Copying SCF densities to generalized density rwf, IOpCl= 0 IROHF=0.

 **********************************************************************

            Population analysis using the MP2 density.

 **********************************************************************

 Orbital symmetries:
       Occupied  (A') (A') (A') (A') (A') (A') (A') (A') (A') (A')
                 (A') (A') (A') (A') (A') (A') (A') (A') (A') (A')
                 (A') (A') (A') (A') (A") (A") (A")
       Virtual   (A") (A") (A') (A') (A') (A") (A") (A') (A") (A')
                 (A') (A') (A') (A") (A") (A') (A') (A') (A') (A")
                 (A") (A') (A') (A') (A') (A') (A') (A') (A") (A')
                 (A") (A") (A') (A') (A') (A') (A') (A') (A') (A")
                 (A') (A') (A') (A') (A') (A') (A') (A') (A') (A')
                 (A') (A') (A') (A') (A') (A') (A') (A') (A') (A')
                 (A") (A') (A') (A') (A") (A") (A') (A') (A') (A')
                 (A") (A") (A") (A") (A') (A") (A') (A') (A') (A')
                 (A') (A') (A') (A') (A') (A') (A') (A') (A') (A')
                 (A') (A') (A') (A") (A") (A') (A') (A') (A") (A")
                 (A') (A') (A") (A") (A") (A") (A') (A') (A') (A')
                 (A') (A") (A") (A') (A') (A') (A") (A') (A') (A')
                 (A') (A") (A") (A") (A") (A") (A') (A') (A") (A")
                 (A') (A') (A') (A') (A') (A') (A') (A') (A') (A')
                 (A') (A") (A") (A") (A") (A") (A') (A') (A') (A')
                 (A') (A") (A') (A') (A') (A') (A') (A') (A') (A")
                 (A') (A') (A') (A') (A') (A') (A') (A') (A") (A")
                 (A") (A") (A") (A") (A') (A') (A') (A") (A') (A')
                 (A') (A') (A') (A') (A') (A') (A') (A') (A') (A')
                 (A') (A') (A') (A') (A') (A') (A') (A') (A') (A')
                 (A') (A') (A')
 The electronic state is 1-A'.
 Alpha  occ. eigenvalues --  -11.67265 -11.67233 -11.67233 -11.67154 -11.67154
 Alpha  occ. eigenvalues --  -11.67074 -11.67074 -11.67041  -1.53321  -1.47331
 Alpha  occ. eigenvalues --   -1.47331  -1.34502  -1.34501  -1.19372  -1.19372
 Alpha  occ. eigenvalues --   -1.09686  -1.05813  -1.03183  -1.03183  -0.99611
 Alpha  occ. eigenvalues --   -0.91348  -0.91347  -0.89447  -0.89447  -0.86280
 Alpha  occ. eigenvalues --   -0.76207  -0.76207
 Alpha virt. eigenvalues --   -0.40193  -0.40192  -0.21365  -0.18147  -0.18147
 Alpha virt. eigenvalues --   -0.16382  -0.16382  -0.15560  -0.15438  -0.14918
 Alpha virt. eigenvalues --   -0.14918  -0.12080  -0.12080  -0.11933  -0.11933
 Alpha virt. eigenvalues --   -0.09395  -0.09395  -0.08599  -0.07610  -0.07302
 Alpha virt. eigenvalues --   -0.07302  -0.06495  -0.05734  -0.05734  -0.03667
 Alpha virt. eigenvalues --   -0.03667  -0.03600  -0.03600  -0.02848  -0.02191
 Alpha virt. eigenvalues --   -0.01369  -0.01369  -0.00743  -0.00743   0.00834
 Alpha virt. eigenvalues --    0.00834   0.02727   0.02728   0.03114   0.05053
 Alpha virt. eigenvalues --    0.06758   0.06758   0.07889   0.07889   0.09405
 Alpha virt. eigenvalues --    0.09406   0.10586   0.10587   0.12223   0.12223
 Alpha virt. eigenvalues --    0.15122   0.17355   0.17355   0.20891   0.20891
 Alpha virt. eigenvalues --    0.24065   0.26534   0.26534   0.27417   0.31799
 Alpha virt. eigenvalues --    0.32875   0.34797   0.38167   0.38167   0.38854
 Alpha virt. eigenvalues --    0.38854   0.39333   0.39333   0.40424   0.40424
 Alpha virt. eigenvalues --    0.44399   0.44400   0.49810   0.49810   0.53044
 Alpha virt. eigenvalues --    0.55875   0.57236   0.57236   0.57285   0.57291
 Alpha virt. eigenvalues --    0.57291   0.57292   0.58560   0.58560   0.64198
 Alpha virt. eigenvalues --    0.65049   0.65049   0.74003   0.74003   0.74243
 Alpha virt. eigenvalues --    0.74243   0.76577   0.76577   0.78926   0.81767
 Alpha virt. eigenvalues --    0.82018   0.83545   0.83545   0.85522   0.85522
 Alpha virt. eigenvalues --    0.92448   0.92448   0.95278   0.95278   0.99148
 Alpha virt. eigenvalues --    0.99149   1.20025   1.20611   1.28820   1.32360
 Alpha virt. eigenvalues --    1.32360   1.38960   1.38960   1.39404   1.42346
 Alpha virt. eigenvalues --    1.42346   1.42432   1.48615   1.48616   1.56307
 Alpha virt. eigenvalues --    1.56307   1.56732   1.56733   1.63789   1.65321
 Alpha virt. eigenvalues --    1.65321   1.65977   1.65978   1.75502   1.75503
 Alpha virt. eigenvalues --    1.78806   1.78806   1.81796   1.81796   1.82087
 Alpha virt. eigenvalues --    1.85264   1.87928   1.91408   1.91408   1.94937
 Alpha virt. eigenvalues --    1.94939   1.99201   1.99201   2.02511   2.02511
 Alpha virt. eigenvalues --    2.15037   2.35533   2.35534   2.38057   2.40046
 Alpha virt. eigenvalues --    2.40046   2.40609   2.48131   2.48131   2.52371
 Alpha virt. eigenvalues --    2.52372   2.54905   2.57181   2.57181   2.61018
 Alpha virt. eigenvalues --    2.64747   2.64747   2.67035   2.69758   2.69758
 Alpha virt. eigenvalues --    2.71306   2.71307   2.76316   2.78020   2.78020
 Alpha virt. eigenvalues --    2.85317   2.85317   2.90833   2.90833   2.95079
 Alpha virt. eigenvalues --    2.95079   2.96702   2.99607   3.11934   3.31617
 Alpha virt. eigenvalues --    3.31617   3.34203   3.34711   3.45275   3.45277
 Alpha virt. eigenvalues --    3.49085   3.49085   3.96370   3.96371   3.97514
 Alpha virt. eigenvalues --    3.97514   4.02781   4.31844   4.31844   4.87712
 Alpha virt. eigenvalues --   24.29910  24.55924  24.55924  24.71528  24.71531
 Alpha virt. eigenvalues --   24.85298  24.85298  25.02786
          Condensed to atoms (all electrons):
              1          2          3          4          5          6
     1  C    7.150690  -0.409546  -0.314511   0.562043  -1.041588   0.562062
     2  C   -0.409546   7.150742  -0.409508  -0.314509   0.562060  -1.041613
     3  C   -0.314511  -0.409508   7.150731  -0.409548  -0.314501   0.562042
     4  C    0.562043  -0.314509  -0.409548   7.150707  -0.409493  -0.314501
     5  C   -1.041588   0.562060  -0.314501  -0.409493   7.150685  -0.409544
     6  C    0.562062  -1.041613   0.562042  -0.314501  -0.409544   7.150734
     7  C   -0.314504   0.562046  -1.041610   0.562061  -0.314502  -0.409508
     8  C   -0.409497  -0.314505   0.562061  -1.041598   0.562035  -0.314505
     9  H    0.458489  -0.105167   0.001128   0.045163  -0.051435   0.045163
    10  H   -0.105167   0.458488  -0.105168   0.001130   0.045163  -0.051435
    11  H    0.001129  -0.105168   0.458488  -0.105167   0.001128   0.045163
    12  H    0.045163   0.001129  -0.105169   0.458487  -0.105167   0.001130
    13  H   -0.051435   0.045163   0.001130  -0.105167   0.458488  -0.105168
    14  H    0.045163  -0.051435   0.045163   0.001129  -0.105169   0.458487
    15  H    0.001128   0.045163  -0.051436   0.045163   0.001130  -0.105167
    16  H   -0.105168   0.001131   0.045164  -0.051435   0.045163   0.001129
              7          8          9         10         11         12
     1  C   -0.314504  -0.409497   0.458489  -0.105167   0.001129   0.045163
     2  C    0.562046  -0.314505  -0.105167   0.458488  -0.105168   0.001129
     3  C   -1.041610   0.562061   0.001128  -0.105168   0.458488  -0.105169
     4  C    0.562061  -1.041598   0.045163   0.001130  -0.105167   0.458487
     5  C   -0.314502   0.562035  -0.051435   0.045163   0.001128  -0.105167
     6  C   -0.409508  -0.314505   0.045163  -0.051435   0.045163   0.001130
     7  C    7.150717  -0.409546   0.001129   0.045164  -0.051436   0.045164
     8  C   -0.409546   7.150722  -0.105169   0.001130   0.045162  -0.051435
     9  H    0.001129  -0.105169   0.402919  -0.008119  -0.001490   0.002181
    10  H    0.045164   0.001130  -0.008119   0.402916  -0.008120  -0.001490
    11  H   -0.051436   0.045162  -0.001490  -0.008120   0.402918  -0.008119
    12  H    0.045164  -0.051435   0.002181  -0.001490  -0.008119   0.402916
    13  H    0.001128   0.045162  -0.001821   0.002181  -0.001490  -0.008120
    14  H   -0.105167   0.001131   0.002181  -0.001821   0.002181  -0.001490
    15  H    0.458490  -0.105169  -0.001490   0.002181  -0.001821   0.002181
    16  H   -0.105168   0.458486  -0.008120  -0.001490   0.002181  -0.001821
             13         14         15         16
     1  C   -0.051435   0.045163   0.001128  -0.105168
     2  C    0.045163  -0.051435   0.045163   0.001131
     3  C    0.001130   0.045163  -0.051436   0.045164
     4  C   -0.105167   0.001129   0.045163  -0.051435
     5  C    0.458488  -0.105169   0.001130   0.045163
     6  C   -0.105168   0.458487  -0.105167   0.001129
     7  C    0.001128  -0.105167   0.458490  -0.105168
     8  C    0.045162   0.001131  -0.105169   0.458486
     9  H   -0.001821   0.002181  -0.001490  -0.008120
    10  H    0.002181  -0.001821   0.002181  -0.001490
    11  H   -0.001490   0.002181  -0.001821   0.002181
    12  H   -0.008120  -0.001490   0.002181  -0.001821
    13  H    0.402918  -0.008120  -0.001490   0.002181
    14  H   -0.008120   0.402916  -0.008120  -0.001490
    15  H   -0.001490  -0.008120   0.402919  -0.008120
    16  H    0.002181  -0.001490  -0.008120   0.402915
 Mulliken atomic charges:
              1
     1  C   -0.074451
     2  C   -0.074468
     3  C   -0.074458
     4  C   -0.074463
     5  C   -0.074451
     6  C   -0.074466
     7  C   -0.074456
     8  C   -0.074465
     9  H    0.324459
    10  H    0.324460
    11  H    0.324460
    12  H    0.324460
    13  H    0.324459
    14  H    0.324461
    15  H    0.324458
    16  H    0.324461
 Sum of Mulliken atomic charges =   2.00000
 Mulliken charges with hydrogens summed into heavy atoms:
              1
     1  C    0.250008
     2  C    0.249992
     3  C    0.250002
     4  C    0.249997
     5  C    0.250008
     6  C    0.249994
     7  C    0.250002
     8  C    0.249996
 Sum of Mulliken charges with hydrogens summed into heavy atoms =   2.00000
 Electronic spatial extent (au):  <R**2>=            873.2906
 Charge=              2.0000 electrons
 Dipole moment (field-independent basis, Debye):
    X=              0.0000    Y=              0.0000    Z=              0.0000  Tot=              0.0000
 Quadrupole moment (field-independent basis, Debye-Ang):
   XX=             -9.8870   YY=             -9.8870   ZZ=            -44.9737
   XY=             -0.0001   XZ=              0.0000   YZ=              0.0000
 Traceless Quadrupole moment (field-independent basis, Debye-Ang):
   XX=             11.6956   YY=             11.6956   ZZ=            -23.3911
   XY=             -0.0001   XZ=              0.0000   YZ=              0.0000
 Octapole moment (field-independent basis, Debye-Ang**2):
  XXX=             -0.0001  YYY=              0.0000  ZZZ=              0.0000  XYY=              0.0001
  XXY=              0.0000  XXZ=              0.0000  XZZ=              0.0000  YZZ=              0.0000
  YYZ=              0.0000  XYZ=              0.0000
 Hexadecapole moment (field-independent basis, Debye-Ang**3):
 XXXX=           -343.7352 YYYY=           -343.7354 ZZZZ=            -45.4922 XXXY=              0.0006
 XXXZ=              0.0000 YYYX=             -0.0008 YYYZ=              0.0000 ZZZX=              0.0000
 ZZZY=              0.0000 XXYY=           -114.5775 XXZZ=           -103.5855 YYZZ=           -103.5855
 XXYZ=              0.0000 YYXZ=              0.0000 ZZXY=              0.0001
 N-N= 3.156211386312D+02 E-N=-1.324533333118D+03  KE= 3.078466336560D+02
 Symmetry A'   KE= 3.013030730409D+02
 Symmetry A"   KE= 6.543560615085D+00
 No NMR shielding tensors so no spin-rotation constants.
 Leave Link  601 at Fri Dec  3 16:51:50 2021, MaxMem=  498073600 cpu:       1.7
 (Enter /apps/software//g09/l9999.exe)
 1\1\GINC-DLT17\SP\RMP2-FC\6-311++G(d,p)\C8H8(2+)\ITAMAR\03-Dec-2021\0\
 \#P MP2/6-311++G** DENSITY=MP2\\C8H8_2+\\2,1\C,0,0.704042,1.69971,0.\C
 ,0,-0.704041,1.699714,0.\C,0,-1.69971,0.70404,0.\C,0,-1.699715,-0.7040
 42,0.\C,0,-0.704041,-1.699711,0.\C,0,0.704041,-1.699715,0.\C,0,1.69970
 7,-0.704039,0.\C,0,1.699718,0.704044,0.\H,0,1.120629,2.705415,0.\H,0,-
 1.120624,2.70542,0.\H,0,-2.705418,1.120622,0.\H,0,-2.705418,-1.120632,
 0.\H,0,-1.120627,-2.705417,0.\H,0,1.120623,-2.705421,0.\H,0,2.705413,-
 1.120625,0.\H,0,2.705422,1.120629,0.\\Version=EM64L-G09RevA.02\State=1
 -A'\HF=-306.8991803\MP2=-307.9602954\RMSD=5.501e-09\Dipole=-0.0000003,
 -0.0000008,0.\Quadrupole=8.695358,8.6953736,-17.3907316,0.0000613,0.,0
 .\PG=CS [SG(C8H8)]\\@


 THE BEST WAY TO CONVINCE A FOOL THAT HE IS WRONG 
 IS TO LET HIM HAVE HIS OWN WAY.

                                         JOSH BILLINGS
 Job cpu time:  0 days  0 hours  7 minutes 35.0 seconds.
 File lengths (MBytes):  RWF=     25 Int=      0 D2E=      0 Chk=      5 Scr=      1
 Normal termination of Gaussian 09 at Fri Dec  3 16:51:50 2021.
