 Entering Gaussian System, Link 0=g09
 Initial command:
 /apps/software//g09/l1.exe /scratch/itamar/2867.cluster.abaxnet/Gau-20859.inp -scrdir=/scratch/itamar/2867.cluster.abaxnet/
 Entering Link 1 = /apps/software//g09/l1.exe PID=     20860.
  
 Copyright (c) 1988,1990,1992,1993,1995,1998,2003,2009, Gaussian, Inc.
                  All Rights Reserved.
  
 This is part of the Gaussian(R) 09 program.  It is based on
 the Gaussian(R) 03 system (copyright 2003, Gaussian, Inc.),
 the Gaussian(R) 98 system (copyright 1998, Gaussian, Inc.),
 the Gaussian(R) 94 system (copyright 1995, Gaussian, Inc.),
 the Gaussian 92(TM) system (copyright 1992, Gaussian, Inc.),
 the Gaussian 90(TM) system (copyright 1990, Gaussian, Inc.),
 the Gaussian 88(TM) system (copyright 1988, Gaussian, Inc.),
 the Gaussian 86(TM) system (copyright 1986, Carnegie Mellon
 University), and the Gaussian 82(TM) system (copyright 1983,
 Carnegie Mellon University). Gaussian is a federally registered
 trademark of Gaussian, Inc.
  
 This software contains proprietary and confidential information,
 including trade secrets, belonging to Gaussian, Inc.
  
 This software is provided under written license and may be
 used, copied, transmitted, or stored only in accord with that
 written license.
  
 The following legend is applicable only to US Government
 contracts under FAR:
  
                    RESTRICTED RIGHTS LEGEND
  
 Use, reproduction and disclosure by the US Government is
 subject to restrictions as set forth in subparagraphs (a)
 and (c) of the Commercial Computer Software - Restricted
 Rights clause in FAR 52.227-19.
  
 Gaussian, Inc.
 340 Quinnipiac St., Bldg. 40, Wallingford CT 06492
  
  
 ---------------------------------------------------------------
 Warning -- This program may not be used in any manner that
 competes with the business of Gaussian, Inc. or will provide
 assistance to any competitor of Gaussian, Inc.  The licensee
 of this program is prohibited from giving any competitor of
 Gaussian, Inc. access to this program.  By using this program,
 the user acknowledges that Gaussian, Inc. is engaged in the
 business of creating and licensing software in the field of
 computational chemistry and represents and warrants to the
 licensee that it is not a competitor of Gaussian, Inc. and that
 it will not use this program in any manner prohibited above.
 ---------------------------------------------------------------
  

 Cite this work as:
 Gaussian 09, Revision A.02,
 M. J. Frisch, G. W. Trucks, H. B. Schlegel, G. E. Scuseria, 
 M. A. Robb, J. R. Cheeseman, G. Scalmani, V. Barone, B. Mennucci, 
 G. A. Petersson, H. Nakatsuji, M. Caricato, X. Li, H. P. Hratchian, 
 A. F. Izmaylov, J. Bloino, G. Zheng, J. L. Sonnenberg, M. Hada, 
 M. Ehara, K. Toyota, R. Fukuda, J. Hasegawa, M. Ishida, T. Nakajima, 
 Y. Honda, O. Kitao, H. Nakai, T. Vreven, J. A. Montgomery, Jr., 
 J. E. Peralta, F. Ogliaro, M. Bearpark, J. J. Heyd, E. Brothers, 
 K. N. Kudin, V. N. Staroverov, R. Kobayashi, J. Normand, 
 K. Raghavachari, A. Rendell, J. C. Burant, S. S. Iyengar, J. Tomasi, 
 M. Cossi, N. Rega, J. M. Millam, M. Klene, J. E. Knox, J. B. Cross, 
 V. Bakken, C. Adamo, J. Jaramillo, R. Gomperts, R. E. Stratmann, 
 O. Yazyev, A. J. Austin, R. Cammi, C. Pomelli, J. W. Ochterski, 
 R. L. Martin, K. Morokuma, V. G. Zakrzewski, G. A. Voth, 
 P. Salvador, J. J. Dannenberg, S. Dapprich, A. D. Daniels, 
 O. Farkas, J. B. Foresman, J. V. Ortiz, J. Cioslowski, 
 and D. J. Fox, Gaussian, Inc., Wallingford CT, 2009.
 
 ******************************************
 Gaussian 09:  EM64L-G09RevA.02 11-Jun-2009
                 8-Dec-2021 
 ******************************************
 %Mem=3800MB
 %NProcShared=6
 Will use up to    6 processors via shared memory.
 %chk=/home/itamar/Aromaticity-test-set/T10-old-T11-heteroaromatic/CH+/ch+.chk
 -----------------------------
 #P MP2/6-311++G** DENSITY=MP2
 -----------------------------
 1/30=1,38=1/1;
 2/12=2,17=6,18=5,40=1/2;
 3/5=4,6=6,7=1111,11=9,16=1,25=1,30=1,71=1/1,2,3;
 4//1;
 5/5=2,38=5/2;
 8/6=4,10=2/1;
 9/15=1,16=-3/6;
 10/5=1,13=10/2;
 6/7=2,8=2,9=2,10=2,22=2/1;
 99/5=1,9=1/99;
 Leave Link    1 at Wed Dec  8 09:28:37 2021, MaxMem=  498073600 cpu:       0.2
 (Enter /apps/software//g09/l101.exe)
 ---
 CH+
 ---
 Symbolic Z-matrix:
 Charge =  1 Multiplicity = 1
 6                    -1.19955   0.3488    0. 
 1                    -2.20984   0.72803   0. 
 6                    -0.78718  -0.93227   0. 
 1                    -1.39009  -1.83154   0. 
 6                     1.19954   0.34881   0. 
 1                     2.20984   0.72804   0. 
 6                     0.78718  -0.93227   0. 
 1                     1.3901   -1.83153   0. 
 6                     0.        1.16009   0. 
 1                    0.         2.24799   0. 
 
 NAtoms=     10 NQM=     10 NQMF=      0 NMic=      0 NMicF=      0 NTot=     10.
                    Isotopes and Nuclear Properties:
 (Nuclear quadrupole moments (NQMom) in fm**2, nuclear magnetic moments (NMagM)
  in nuclear magnetons)

  Atom         1           2           3           4           5           6           7           8           9          10
 IAtWgt=          12           1          12           1          12           1          12           1          12           1
 AtmWgt=  12.0000000   1.0078250  12.0000000   1.0078250  12.0000000   1.0078250  12.0000000   1.0078250  12.0000000   1.0078250
 NucSpn=           0           1           0           1           0           1           0           1           0           1
 AtZEff=   0.0000000   0.0000000   0.0000000   0.0000000   0.0000000   0.0000000   0.0000000   0.0000000   0.0000000   0.0000000
 NQMom=    0.0000000   0.0000000   0.0000000   0.0000000   0.0000000   0.0000000   0.0000000   0.0000000   0.0000000   0.0000000
 NMagM=    0.0000000   2.7928460   0.0000000   2.7928460   0.0000000   2.7928460   0.0000000   2.7928460   0.0000000   2.7928460
 Leave Link  101 at Wed Dec  8 09:28:37 2021, MaxMem=  498073600 cpu:       0.2
 (Enter /apps/software//g09/l202.exe)
                          Input orientation:                          
 ---------------------------------------------------------------------
 Center     Atomic      Atomic             Coordinates (Angstroms)
 Number     Number       Type             X           Y           Z
 ---------------------------------------------------------------------
      1          6           0       -1.199545    0.348803    0.000000
      2          1           0       -2.209841    0.728029    0.000000
      3          6           0       -0.787183   -0.932269    0.000000
      4          1           0       -1.390093   -1.831539    0.000000
      5          6           0        1.199544    0.348812    0.000000
      6          1           0        2.209840    0.728037    0.000000
      7          6           0        0.787184   -0.932265    0.000000
      8          1           0        1.390101   -1.831530    0.000000
      9          6           0        0.000000    1.160087    0.000000
     10          1           0       -0.000004    2.247993    0.000000
 ---------------------------------------------------------------------
                    Distance matrix (angstroms):
                    1          2          3          4          5
     1  C    0.000000
     2  H    1.079125   0.000000
     3  C    1.345804   2.186446   0.000000
     4  H    2.188653   2.687634   1.082676   0.000000
     5  C    2.399089   3.430410   2.363949   3.385284   0.000000
     6  H    3.430412   4.419681   3.426188   4.417120   1.079124
     7  C    2.363943   3.426184   1.574367   2.355680   1.345808
     8  H    3.385280   4.417117   2.355682   2.780194   2.188653
     9  C    1.448133   2.251682   2.235534   3.298816   1.448127
    10  H    2.246291   2.682102   3.276235   4.309864   2.246287
                    6          7          8          9         10
     6  H    0.000000
     7  C    2.186448   0.000000
     8  H    2.687630   1.082676   0.000000
     9  C    2.251679   2.235530   3.298811   0.000000
    10  H    2.682103   3.276233   4.309861   1.087906   0.000000
 Stoichiometry    C5H5(1+)
 Framework group  CS[SG(C5H5)]
 Deg. of freedom    17
 Full point group                 CS      NOp   2
 Largest Abelian subgroup         CS      NOp   2
 Largest concise Abelian subgroup C1      NOp   1
                         Standard orientation:                         
 ---------------------------------------------------------------------
 Center     Atomic      Atomic             Coordinates (Angstroms)
 Number     Number       Type             X           Y           Z
 ---------------------------------------------------------------------
      1          6           0       -1.199545    0.348803    0.000000
      2          1           0       -2.209841    0.728029    0.000000
      3          6           0       -0.787183   -0.932269    0.000000
      4          1           0       -1.390093   -1.831539    0.000000
      5          6           0        1.199544    0.348812    0.000000
      6          1           0        2.209840    0.728037    0.000000
      7          6           0        0.787184   -0.932265    0.000000
      8          1           0        1.390101   -1.831530    0.000000
      9          6           0        0.000000    1.160087    0.000000
     10          1           0       -0.000004    2.247993    0.000000
 ---------------------------------------------------------------------
 Rotational constants (GHZ):      9.5622579      8.0036263      4.3568965
 Leave Link  202 at Wed Dec  8 09:28:37 2021, MaxMem=  498073600 cpu:       0.0
 (Enter /apps/software//g09/l301.exe)
 Standard basis: 6-311++G(d,p) (5D, 7F)
 Ernie: Thresh=  0.10000D-02 Tol=  0.10000D-05 Strict=F.
 There are   110 symmetry adapted basis functions of A'  symmetry.
 There are    35 symmetry adapted basis functions of A"  symmetry.
 Integral buffers will be    131072 words long.
 Raffenetti 1 integral format.
 Two-electron integral symmetry is turned on.
   145 basis functions,   225 primitive gaussians,   150 cartesian basis functions
    17 alpha electrons       17 beta electrons
       nuclear repulsion energy       147.6666655150 Hartrees.
 IExCor=    0 DFT=F Ex=HF Corr=None ExCW=0 ScaHFX=  1.000000
 ScaDFX=  1.000000  1.000000  1.000000  1.000000 ScalE2=  1.000000  1.000000
 IRadAn=      0 IRanWt=     -1 IRanGd=            0 ICorTp=0
 NAtoms=   10 NActive=   10 NUniq=   10 SFac= 7.50D-01 NAtFMM=   80 NAOKFM=F Big=F
 Leave Link  301 at Wed Dec  8 09:28:37 2021, MaxMem=  498073600 cpu:       0.2
 (Enter /apps/software//g09/l302.exe)
 NPDir=0 NMtPBC=     1 NCelOv=     1 NCel=       1 NClECP=     1 NCelD=      1
         NCelK=      1 NCelE2=     1 NClLst=     1 CellRange=     0.0.
 One-electron integrals computed using PRISM.
 NBasis=   145 RedAO= T  NBF=   110    35
 NBsUse=   145 1.00D-06 NBFU=   110    35
 Leave Link  302 at Wed Dec  8 09:28:37 2021, MaxMem=  498073600 cpu:       1.3
 (Enter /apps/software//g09/l303.exe)
 DipDrv:  MaxL=1.
 Leave Link  303 at Wed Dec  8 09:28:37 2021, MaxMem=  498073600 cpu:       0.1
 (Enter /apps/software//g09/l401.exe)
 Harris functional with IExCor=  205 diagonalized for initial guess.
 ExpMin= 3.60D-02 ExpMax= 4.56D+03 ExpMxC= 6.82D+02 IAcc=3 IRadAn=         0 AccDes= 0.00D+00
 HarFok:  IExCor=  205 AccDes= 0.00D+00 IRadAn=         0 IDoV= 1
 ScaDFX=  1.000000  1.000000  1.000000  1.000000
 FoFCou: FMM=F IPFlag=           0 FMFlag=      100000 FMFlg1=           0
         NFxFlg=           0 DoJE=T BraDBF=F KetDBF=T FulRan=T
         Omega=  0.000000  0.000000  1.000000  0.000000  0.000000 ICntrl=     500 IOpCl=  0
         NMat0=    1 NMatS0=    1 NMatT0=    0 NMatD0=    1 NMtDS0=    0 NMtDT0=    0
         I1Cent=           4 NGrid=           0.
 Petite list used in FoFCou.
 Harris En= -192.216038406453    
 Initial guess orbital symmetries:
       Occupied  (A') (A') (A') (A') (A') (A') (A') (A') (A') (A')
                 (A') (A') (A') (A') (A") (A') (A")
       Virtual   (A") (A") (A") (A') (A') (A') (A') (A') (A') (A')
                 (A") (A') (A") (A') (A") (A') (A') (A') (A') (A')
                 (A') (A') (A") (A") (A') (A') (A') (A') (A') (A')
                 (A') (A') (A') (A') (A') (A') (A') (A') (A') (A')
                 (A") (A') (A') (A") (A') (A") (A') (A") (A") (A')
                 (A') (A') (A') (A') (A') (A') (A') (A') (A') (A")
                 (A') (A') (A") (A") (A') (A') (A") (A") (A') (A')
                 (A') (A') (A') (A") (A') (A") (A') (A") (A') (A")
                 (A") (A") (A') (A') (A') (A") (A') (A') (A') (A')
                 (A") (A") (A") (A') (A') (A') (A') (A') (A') (A")
                 (A') (A') (A") (A') (A") (A') (A') (A') (A') (A")
                 (A") (A') (A') (A') (A') (A') (A') (A') (A') (A')
                 (A') (A') (A') (A') (A') (A') (A') (A')
 The electronic state of the initial guess is 1-A'.
 Leave Link  401 at Wed Dec  8 09:28:38 2021, MaxMem=  498073600 cpu:       2.4
 (Enter /apps/software//g09/l502.exe)
 Closed shell SCF:
 Requested convergence on RMS density matrix=1.00D-08 within 128 cycles.
 Requested convergence on MAX density matrix=1.00D-06.
 Requested convergence on             energy=1.00D-06.
 No special actions if energy rises.
 Using DIIS extrapolation, IDIIS=  1040.
 Integral symmetry usage will be decided dynamically.
 Keep R1 ints in memory in canonical form, NReq=65942610.
 IEnd=       87721 IEndB=       87721 NGot=   498073600 MDV=   433891667
 LenX=   433891667 LenY=   433868726
 Symmetry not used in FoFDir.
 MinBra= 0 MaxBra= 2 Meth= 1.
 IRaf=       0 NMat=   1 IRICut=       1 DoRegI=T DoRafI=F ISym2E= 0 JSym2E=0.

 Cycle   1  Pass 1  IDiag  1:
 E= -191.785857457298    
 DIIS: error= 6.67D-02 at cycle   1 NSaved=   1.
 NSaved= 1 IEnMin= 1 EnMin= -191.785857457298     IErMin= 1 ErrMin= 6.67D-02
 ErrMax= 6.67D-02 EMaxC= 1.00D-01 BMatC= 3.54D-01 BMatP= 3.54D-01
 IDIUse=3 WtCom= 3.33D-01 WtEn= 6.67D-01
 Coeff-Com:  0.100D+01
 Coeff-En:   0.100D+01
 Coeff:      0.100D+01
 Gap=     0.276 Goal=   None    Shift=    0.000
 GapD=    0.276 DampG=1.000 DampE=0.500 DampFc=0.5000 IDamp=-1.
 Damping current iteration by 5.00D-01
 RMSDP=6.26D-03 MaxDP=1.21D-01              OVMax= 1.13D-01

 Cycle   2  Pass 1  IDiag  1:
 E= -191.865928517937     Delta-E=       -0.080071060639 Rises=F Damp=T
 DIIS: error= 3.02D-02 at cycle   2 NSaved=   2.
 NSaved= 2 IEnMin= 2 EnMin= -191.865928517937     IErMin= 2 ErrMin= 3.02D-02
 ErrMax= 3.02D-02 EMaxC= 1.00D-01 BMatC= 8.59D-02 BMatP= 3.54D-01
 IDIUse=3 WtCom= 6.98D-01 WtEn= 3.02D-01
 Coeff-Com: -0.845D+00 0.185D+01
 Coeff-En:   0.000D+00 0.100D+01
 Coeff:     -0.590D+00 0.159D+01
 Gap=     0.313 Goal=   None    Shift=    0.000
 RMSDP=5.19D-03 MaxDP=1.56D-01 DE=-8.01D-02 OVMax= 3.68D-02

 Cycle   3  Pass 1  IDiag  1:
 E= -191.941586553519     Delta-E=       -0.075658035582 Rises=F Damp=F
 DIIS: error= 3.69D-03 at cycle   3 NSaved=   3.
 NSaved= 3 IEnMin= 3 EnMin= -191.941586553519     IErMin= 3 ErrMin= 3.69D-03
 ErrMax= 3.69D-03 EMaxC= 1.00D-01 BMatC= 6.35D-04 BMatP= 8.59D-02
 IDIUse=3 WtCom= 9.63D-01 WtEn= 3.69D-02
 Coeff-Com: -0.102D+00 0.160D+00 0.942D+00
 Coeff-En:   0.000D+00 0.000D+00 0.100D+01
 Coeff:     -0.986D-01 0.154D+00 0.944D+00
 Gap=     0.309 Goal=   None    Shift=    0.000
 RMSDP=5.08D-04 MaxDP=1.19D-02 DE=-7.57D-02 OVMax= 6.74D-03

 Cycle   4  Pass 1  IDiag  1:
 E= -191.942295991931     Delta-E=       -0.000709438412 Rises=F Damp=F
 DIIS: error= 9.32D-04 at cycle   4 NSaved=   4.
 NSaved= 4 IEnMin= 4 EnMin= -191.942295991931     IErMin= 4 ErrMin= 9.32D-04
 ErrMax= 9.32D-04 EMaxC= 1.00D-01 BMatC= 2.52D-05 BMatP= 6.35D-04
 IDIUse=3 WtCom= 9.91D-01 WtEn= 9.32D-03
 Coeff-Com:  0.196D-01-0.367D-01-0.112D+00 0.113D+01
 Coeff-En:   0.000D+00 0.000D+00 0.000D+00 0.100D+01
 Coeff:      0.194D-01-0.363D-01-0.111D+00 0.113D+01
 Gap=     0.310 Goal=   None    Shift=    0.000
 RMSDP=1.55D-04 MaxDP=2.37D-03 DE=-7.09D-04 OVMax= 4.04D-03

 Cycle   5  Pass 1  IDiag  1:
 E= -191.942360127297     Delta-E=       -0.000064135365 Rises=F Damp=F
 DIIS: error= 4.17D-04 at cycle   5 NSaved=   5.
 NSaved= 5 IEnMin= 5 EnMin= -191.942360127297     IErMin= 5 ErrMin= 4.17D-04
 ErrMax= 4.17D-04 EMaxC= 1.00D-01 BMatC= 5.38D-06 BMatP= 2.52D-05
 IDIUse=3 WtCom= 9.96D-01 WtEn= 4.17D-03
 Coeff-Com:  0.960D-02-0.158D-01-0.927D-01 0.212D+00 0.887D+00
 Coeff-En:   0.000D+00 0.000D+00 0.000D+00 0.000D+00 0.100D+01
 Coeff:      0.956D-02-0.158D-01-0.923D-01 0.211D+00 0.888D+00
 Gap=     0.311 Goal=   None    Shift=    0.000
 RMSDP=5.63D-05 MaxDP=1.69D-03 DE=-6.41D-05 OVMax= 2.34D-03

 Cycle   6  Pass 1  IDiag  1:
 E= -191.942371583136     Delta-E=       -0.000011455839 Rises=F Damp=F
 DIIS: error= 2.15D-04 at cycle   6 NSaved=   6.
 NSaved= 6 IEnMin= 6 EnMin= -191.942371583136     IErMin= 6 ErrMin= 2.15D-04
 ErrMax= 2.15D-04 EMaxC= 1.00D-01 BMatC= 1.08D-06 BMatP= 5.38D-06
 IDIUse=3 WtCom= 9.98D-01 WtEn= 2.15D-03
 Coeff-Com: -0.146D-02 0.330D-02-0.491D-02-0.146D+00 0.208D+00 0.941D+00
 Coeff-En:   0.000D+00 0.000D+00 0.000D+00 0.000D+00 0.000D+00 0.100D+01
 Coeff:     -0.145D-02 0.329D-02-0.489D-02-0.146D+00 0.207D+00 0.942D+00
 Gap=     0.311 Goal=   None    Shift=    0.000
 RMSDP=2.08D-05 MaxDP=5.45D-04 DE=-1.15D-05 OVMax= 8.33D-04

 Cycle   7  Pass 1  IDiag  1:
 E= -191.942374382104     Delta-E=       -0.000002798969 Rises=F Damp=F
 DIIS: error= 6.60D-05 at cycle   7 NSaved=   7.
 NSaved= 7 IEnMin= 7 EnMin= -191.942374382104     IErMin= 7 ErrMin= 6.60D-05
 ErrMax= 6.60D-05 EMaxC= 1.00D-01 BMatC= 8.31D-08 BMatP= 1.08D-06
 IDIUse=1 WtCom= 1.00D+00 WtEn= 0.00D+00
 Coeff-Com: -0.106D-02 0.173D-02 0.973D-02 0.193D-01-0.139D+00-0.333D+00
 Coeff-Com:  0.144D+01
 Coeff:     -0.106D-02 0.173D-02 0.973D-02 0.193D-01-0.139D+00-0.333D+00
 Coeff:      0.144D+01
 Gap=     0.311 Goal=   None    Shift=    0.000
 RMSDP=8.76D-06 MaxDP=1.71D-04 DE=-2.80D-06 OVMax= 6.42D-04

 Cycle   8  Pass 1  IDiag  1:
 E= -191.942374853674     Delta-E=       -0.000000471570 Rises=F Damp=F
 DIIS: error= 1.41D-05 at cycle   8 NSaved=   8.
 NSaved= 8 IEnMin= 8 EnMin= -191.942374853674     IErMin= 8 ErrMin= 1.41D-05
 ErrMax= 1.41D-05 EMaxC= 1.00D-01 BMatC= 8.56D-09 BMatP= 8.31D-08
 IDIUse=1 WtCom= 1.00D+00 WtEn= 0.00D+00
 Coeff-Com: -0.153D-03 0.207D-03 0.175D-02 0.101D-01-0.259D-01-0.132D+00
 Coeff-Com:  0.191D+00 0.955D+00
 Coeff:     -0.153D-03 0.207D-03 0.175D-02 0.101D-01-0.259D-01-0.132D+00
 Coeff:      0.191D+00 0.955D+00
 Gap=     0.311 Goal=   None    Shift=    0.000
 RMSDP=1.89D-06 MaxDP=3.95D-05 DE=-4.72D-07 OVMax= 1.24D-04

 Cycle   9  Pass 1  IDiag  1:
 E= -191.942374880327     Delta-E=       -0.000000026653 Rises=F Damp=F
 DIIS: error= 4.63D-06 at cycle   9 NSaved=   9.
 NSaved= 9 IEnMin= 9 EnMin= -191.942374880327     IErMin= 9 ErrMin= 4.63D-06
 ErrMax= 4.63D-06 EMaxC= 1.00D-01 BMatC= 8.10D-10 BMatP= 8.56D-09
 IDIUse=1 WtCom= 1.00D+00 WtEn= 0.00D+00
 Coeff-Com:  0.136D-03-0.218D-03-0.142D-02-0.309D-02 0.247D-01 0.383D-01
 Coeff-Com: -0.171D+00-0.123D+00 0.124D+01
 Coeff:      0.136D-03-0.218D-03-0.142D-02-0.309D-02 0.247D-01 0.383D-01
 Coeff:     -0.171D+00-0.123D+00 0.124D+01
 Gap=     0.311 Goal=   None    Shift=    0.000
 RMSDP=1.24D-06 MaxDP=3.72D-05 DE=-2.67D-08 OVMax= 4.91D-05

 Cycle  10  Pass 1  IDiag  1:
 E= -191.942374883196     Delta-E=       -0.000000002870 Rises=F Damp=F
 DIIS: error= 1.02D-06 at cycle  10 NSaved=  10.
 NSaved=10 IEnMin=10 EnMin= -191.942374883196     IErMin=10 ErrMin= 1.02D-06
 ErrMax= 1.02D-06 EMaxC= 1.00D-01 BMatC= 7.54D-11 BMatP= 8.10D-10
 IDIUse=1 WtCom= 1.00D+00 WtEn= 0.00D+00
 Coeff-Com: -0.337D-04 0.550D-04 0.437D-03 0.191D-03-0.571D-02-0.104D-01
 Coeff-Com:  0.590D-01-0.436D-01-0.429D+00 0.143D+01
 Coeff:     -0.337D-04 0.550D-04 0.437D-03 0.191D-03-0.571D-02-0.104D-01
 Coeff:      0.590D-01-0.436D-01-0.429D+00 0.143D+01
 Gap=     0.311 Goal=   None    Shift=    0.000
 RMSDP=2.46D-07 MaxDP=2.87D-06 DE=-2.87D-09 OVMax= 1.34D-05

 Cycle  11  Pass 1  IDiag  1:
 E= -191.942374883414     Delta-E=       -0.000000000218 Rises=F Damp=F
 DIIS: error= 2.65D-07 at cycle  11 NSaved=  11.
 NSaved=11 IEnMin=11 EnMin= -191.942374883414     IErMin=11 ErrMin= 2.65D-07
 ErrMax= 2.65D-07 EMaxC= 1.00D-01 BMatC= 3.84D-12 BMatP= 7.54D-11
 IDIUse=1 WtCom= 1.00D+00 WtEn= 0.00D+00
 Coeff-Com:  0.804D-05-0.139D-04-0.982D-04 0.177D-04 0.155D-02 0.103D-02
 Coeff-Com: -0.138D-01 0.266D-01 0.102D+00-0.578D+00 0.146D+01
 Coeff:      0.804D-05-0.139D-04-0.982D-04 0.177D-04 0.155D-02 0.103D-02
 Coeff:     -0.138D-01 0.266D-01 0.102D+00-0.578D+00 0.146D+01
 Gap=     0.311 Goal=   None    Shift=    0.000
 RMSDP=8.79D-08 MaxDP=2.26D-06 DE=-2.18D-10 OVMax= 1.61D-06

 Cycle  12  Pass 1  IDiag  1:
 E= -191.942374883424     Delta-E=       -0.000000000010 Rises=F Damp=F
 DIIS: error= 4.99D-08 at cycle  12 NSaved=  12.
 NSaved=12 IEnMin=12 EnMin= -191.942374883424     IErMin=12 ErrMin= 4.99D-08
 ErrMax= 4.99D-08 EMaxC= 1.00D-01 BMatC= 7.41D-14 BMatP= 3.84D-12
 IDIUse=1 WtCom= 1.00D+00 WtEn= 0.00D+00
 Coeff-Com: -0.257D-06 0.506D-06 0.255D-05-0.192D-04-0.113D-04 0.145D-03
 Coeff-Com:  0.230D-03-0.310D-02-0.111D-02 0.499D-01-0.277D+00 0.123D+01
 Coeff:     -0.257D-06 0.506D-06 0.255D-05-0.192D-04-0.113D-04 0.145D-03
 Coeff:      0.230D-03-0.310D-02-0.111D-02 0.499D-01-0.277D+00 0.123D+01
 Gap=     0.311 Goal=   None    Shift=    0.000
 RMSDP=1.03D-08 MaxDP=2.21D-07 DE=-9.72D-12 OVMax= 3.53D-07

 Cycle  13  Pass 1  IDiag  1:
 E= -191.942374883422     Delta-E=        0.000000000001 Rises=F Damp=F
 DIIS: error= 8.29D-09 at cycle  13 NSaved=  13.
 NSaved=13 IEnMin=12 EnMin= -191.942374883424     IErMin=13 ErrMin= 8.29D-09
 ErrMax= 8.29D-09 EMaxC= 1.00D-01 BMatC= 2.45D-15 BMatP= 7.41D-14
 IDIUse=1 WtCom= 1.00D+00 WtEn= 0.00D+00
 Coeff-Com: -0.330D-06 0.562D-06 0.412D-05 0.800D-06-0.592D-04-0.803D-04
 Coeff-Com:  0.581D-03-0.630D-03-0.433D-02 0.170D-01-0.167D-01-0.214D+00
 Coeff-Com:  0.122D+01
 Coeff:     -0.330D-06 0.562D-06 0.412D-05 0.800D-06-0.592D-04-0.803D-04
 Coeff:      0.581D-03-0.630D-03-0.433D-02 0.170D-01-0.167D-01-0.214D+00
 Coeff:      0.122D+01
 Gap=     0.311 Goal=   None    Shift=    0.000
 RMSDP=3.53D-09 MaxDP=1.16D-07 DE= 1.31D-12 OVMax= 6.63D-08

 SCF Done:  E(RHF) =  -191.942374883     A.U. after   13 cycles
             Convg  =    0.3530D-08             -V/T =  2.0013
 KE= 1.916972434484D+02 PE=-7.337057183984D+02 EE= 2.023994345516D+02
 Leave Link  502 at Wed Dec  8 09:28:43 2021, MaxMem=  498073600 cpu:      30.3
 (Enter /apps/software//g09/l801.exe)
 ExpMin= 3.60D-02 ExpMax= 4.56D+03 ExpMxC= 6.82D+02 IAcc=3 IRadAn=         5 AccDes= 0.00D+00
 HarFok:  IExCor=  205 AccDes= 0.00D+00 IRadAn=         5 IDoV=-2
 ScaDFX=  1.000000  1.000000  1.000000  1.000000
 Largest valence mixing into a core orbital is  1.51D-04
 Largest core mixing into a valence orbital is  4.92D-05
 Range of M.O.s used for correlation:     6   145
 NBasis=   145 NAE=    17 NBE=    17 NFC=     5 NFV=     0
 NROrb=    140 NOA=    12 NOB=    12 NVA=   128 NVB=   128

 **** Warning!!: The largest alpha MO coefficient is  0.11950810D+03

 Leave Link  801 at Wed Dec  8 09:28:43 2021, MaxMem=  498073600 cpu:       1.0
 (Enter /apps/software//g09/l906.exe)
 Frozen-core derivative calculation, NFC=   5 NFV=   0.
 FulOut=F Deriv=T AODrv=F NAtomX=    10
   MMem=         287  MDisk=          12 MDiskD=          12
  W3Min=      369750 MinDsk=      626375 NBas6D=         150
 NBas2D=       11535    NTT=       11325    LW2=     2040000
    MDV=   497793428 MDiskM=       45906 NBas2p=       11508
 Fully in-core method, ICMem=   139898475.
 IMap=   1   2   3   4   5   6   7   8   9  10  11  12  13  14  15  16  17
 JobTyp=1 Pass  1 fully in-core, NPsUse=  6.
 Compute canonical integrals, IntTyp=   4.
 Symmetry not used in FoFDir.
 MinBra= 0 MaxBra= 2 Meth= 1.
 IRaf=       0 NMat=   1 IRICut=       1 DoRegI=T DoRafI=F ISym2E= 0 JSym2E=0.
 Spin components of T(2) and E(2):
     alpha-alpha T2 =       0.2935898322D-01 E2=     -0.7889626400D-01
     alpha-beta  T2 =       0.1785221936D+00 E2=     -0.4888807853D+00
     beta-beta   T2 =       0.2935898322D-01 E2=     -0.7889626400D-01
 The integrals were generated   1 times.
 ANorm=    0.1112312978D+01
 E2 =    -0.6466733133D+00 EUMP2 =    -0.19258904819670D+03
 Leave Link  906 at Wed Dec  8 09:28:57 2021, MaxMem=  498073600 cpu:      85.3
 (Enter /apps/software//g09/l1002.exe)
 Minotr:  Closed shell wavefunction.
          Computing MP2/KS-MP2 derivatives.
          Using Z-Vector for PSCF gradient.
          Skipping F1 and S1 gradient terms here.
          Frozen-core window.
          Direct CPHF calculation.
          Differentiating once with respect to electric field.
                with respect to dipole field.
          Electric field/nuclear overlap derivatives assumed to be zero.
          Using symmetry in CPHF.
          Requested convergence is 1.0D-10 RMS, and 1.0D-09 maximum.
          NewPWx=F KeepS1=T KeepF1=T KeepIn=T MapXYZ=F SortEE=F KeepMc=T.
          MDV=     498073516 using IRadAn=       0.
          Keep R1 ints in memory in canonical form, NReq=64954689.
 Symmetry not used in FoFDir.
 MinBra= 0 MaxBra= 2 Meth= 1.
 IRaf=       0 NMat=   1 IRICut=       1 DoRegI=T DoRafI=F ISym2E= 0 JSym2E=0.
          Solving linear equations separately, MaxMat=       0.
          There are     1 degrees of freedom in the 1st order CPHF.  IDoFFX=0.
 LinEq1:  Iter=  0 NonCon=     1 RMS=5.07D-03 Max=1.15D-01
 AX will form     1 AO Fock derivatives at one time.
 LinEq1:  Iter=  1 NonCon=     1 RMS=1.14D-03 Max=2.13D-02
 LinEq1:  Iter=  2 NonCon=     1 RMS=4.63D-04 Max=1.23D-02
 LinEq1:  Iter=  3 NonCon=     1 RMS=1.85D-04 Max=6.11D-03
 LinEq1:  Iter=  4 NonCon=     1 RMS=5.98D-05 Max=8.27D-04
 LinEq1:  Iter=  5 NonCon=     1 RMS=1.54D-05 Max=2.79D-04
 LinEq1:  Iter=  6 NonCon=     1 RMS=2.92D-06 Max=3.57D-05
 LinEq1:  Iter=  7 NonCon=     1 RMS=5.95D-07 Max=8.79D-06
 LinEq1:  Iter=  8 NonCon=     1 RMS=1.85D-07 Max=2.07D-06
 LinEq1:  Iter=  9 NonCon=     1 RMS=2.45D-08 Max=2.55D-07
 LinEq1:  Iter= 10 NonCon=     1 RMS=3.05D-09 Max=3.31D-08
 LinEq1:  Iter= 11 NonCon=     1 RMS=5.59D-10 Max=9.60D-09
 LinEq1:  Iter= 12 NonCon=     1 RMS=1.47D-10 Max=5.50D-09
 LinEq1:  Iter= 13 NonCon=     0 RMS=3.91D-11 Max=6.85D-10
 Linear equations converged to 1.000D-10 1.000D-09 after    13 iterations.
 End of Minotr Frequency-dependent properties file   721 does not exist.
 End of Minotr Frequency-dependent properties file   722 does not exist.
 Leave Link 1002 at Wed Dec  8 09:29:02 2021, MaxMem=  498073600 cpu:      30.4
 (Enter /apps/software//g09/l601.exe)
 Copying SCF densities to generalized density rwf, IOpCl= 0 IROHF=0.

 **********************************************************************

            Population analysis using the MP2 density.

 **********************************************************************

 Orbital symmetries:
       Occupied  (A') (A') (A') (A') (A') (A') (A') (A') (A') (A')
                 (A') (A') (A') (A') (A') (A") (A")
       Virtual   (A") (A') (A') (A') (A') (A') (A") (A") (A') (A")
                 (A") (A") (A') (A') (A') (A') (A') (A') (A') (A')
                 (A') (A') (A') (A") (A") (A') (A') (A') (A') (A')
                 (A') (A') (A') (A') (A') (A') (A') (A') (A') (A')
                 (A") (A') (A') (A') (A") (A") (A') (A") (A") (A')
                 (A') (A') (A') (A') (A') (A') (A') (A') (A') (A')
                 (A') (A") (A') (A') (A") (A") (A") (A") (A') (A')
                 (A') (A') (A') (A") (A") (A') (A') (A") (A') (A")
                 (A") (A") (A') (A') (A") (A') (A') (A') (A') (A')
                 (A") (A") (A") (A') (A') (A') (A') (A') (A') (A')
                 (A') (A") (A') (A') (A') (A') (A') (A") (A") (A")
                 (A") (A') (A') (A') (A') (A') (A') (A') (A') (A')
                 (A') (A') (A') (A') (A') (A') (A') (A')
 The electronic state is 1-A'.
 Alpha  occ. eigenvalues --  -11.56930 -11.51292 -11.51242 -11.45211 -11.45208
 Alpha  occ. eigenvalues --   -1.40988  -1.22173  -1.18056  -0.98408  -0.98147
 Alpha  occ. eigenvalues --   -0.93925  -0.81302  -0.79185  -0.77501  -0.74782
 Alpha  occ. eigenvalues --   -0.70795  -0.55335
 Alpha virt. eigenvalues --   -0.24245  -0.08604  -0.07081  -0.06478  -0.04289
 Alpha virt. eigenvalues --   -0.04233  -0.03321  -0.02073  -0.01795  -0.01538
 Alpha virt. eigenvalues --    0.00915   0.01039   0.01275   0.01401   0.04217
 Alpha virt. eigenvalues --    0.04835   0.04974   0.06847   0.07022   0.07138
 Alpha virt. eigenvalues --    0.07265   0.07475   0.07714   0.08541   0.08770
 Alpha virt. eigenvalues --    0.13890   0.13989   0.14026   0.15753   0.16850
 Alpha virt. eigenvalues --    0.21882   0.24027   0.24543   0.27357   0.27784
 Alpha virt. eigenvalues --    0.35059   0.35405   0.40411   0.40502   0.49667
 Alpha virt. eigenvalues --    0.50769   0.50778   0.52334   0.53217   0.54074
 Alpha virt. eigenvalues --    0.54221   0.58529   0.62135   0.62201   0.65230
 Alpha virt. eigenvalues --    0.70942   0.74518   0.78025   0.78234   0.78290
 Alpha virt. eigenvalues --    0.79966   0.80657   0.84056   0.86557   0.88375
 Alpha virt. eigenvalues --    0.89389   0.91333   1.01335   1.01368   1.06147
 Alpha virt. eigenvalues --    1.08359   1.13155   1.13223   1.25089   1.48139
 Alpha virt. eigenvalues --    1.55414   1.56139   1.57327   1.57362   1.58137
 Alpha virt. eigenvalues --    1.59391   1.71434   1.74362   1.75085   1.78210
 Alpha virt. eigenvalues --    1.82251   1.88476   1.89379   1.90708   1.95298
 Alpha virt. eigenvalues --    1.96860   1.99312   2.00959   2.08648   2.09445
 Alpha virt. eigenvalues --    2.21723   2.32760   2.32879   2.39753   2.40270
 Alpha virt. eigenvalues --    2.49167   2.51434   2.58483   2.72465   2.73682
 Alpha virt. eigenvalues --    2.76387   2.81139   2.82294   2.83963   2.84614
 Alpha virt. eigenvalues --    2.85646   2.86390   2.90567   2.94316   3.12885
 Alpha virt. eigenvalues --    3.13452   3.19818   3.29526   3.42767   3.43493
 Alpha virt. eigenvalues --    3.50771   3.65290   3.67806   4.16502   4.18621
 Alpha virt. eigenvalues --    4.23152   4.24832   4.77377  24.52109  24.67279
 Alpha virt. eigenvalues --   24.79238  25.15169  25.17559
          Condensed to atoms (all electrons):
              1          2          3          4          5          6
     1  C    7.667228   0.496354  -1.375679  -0.131214   0.713323   0.038760
     2  H    0.496354   0.408332  -0.117890  -0.007294   0.038760   0.000810
     3  C   -1.375679  -0.117890   6.923306   0.462261   0.508476   0.023187
     4  H   -0.131214  -0.007294   0.462261   0.409021   0.030517   0.000370
     5  C    0.713323   0.038760   0.508476   0.030517   7.667231   0.496355
     6  H    0.038760   0.000810   0.023187   0.000370   0.496355   0.408331
     7  C    0.508481   0.023187  -1.093534  -0.101438  -1.375663  -0.117890
     8  H    0.030518   0.000370  -0.101439  -0.004225  -0.131215  -0.007294
     9  C   -1.431294  -0.118652   0.729518   0.037727  -1.431299  -0.118653
    10  H   -0.136102  -0.007114   0.043424   0.000822  -0.136103  -0.007114
              7          8          9         10
     1  C    0.508481   0.030518  -1.431294  -0.136102
     2  H    0.023187   0.000370  -0.118652  -0.007114
     3  C   -1.093534  -0.101439   0.729518   0.043424
     4  H   -0.101438  -0.004225   0.037727   0.000822
     5  C   -1.375663  -0.131215  -1.431299  -0.136103
     6  H   -0.117890  -0.007294  -0.118653  -0.007114
     7  C    6.923267   0.462260   0.729518   0.043424
     8  H    0.462260   0.409021   0.037727   0.000822
     9  C    0.729518   0.037727   6.837835   0.464639
    10  H    0.043424   0.000822   0.464639   0.405424
 Mulliken atomic charges:
              1
     1  C   -0.380374
     2  H    0.283138
     3  C   -0.001630
     4  H    0.303454
     5  C   -0.380381
     6  H    0.283138
     7  C   -0.001611
     8  H    0.303456
     9  C    0.262934
    10  H    0.327877
 Sum of Mulliken atomic charges =   1.00000
 Mulliken charges with hydrogens summed into heavy atoms:
              1
     1  C   -0.097236
     3  C    0.301824
     5  C   -0.097243
     7  C    0.301845
     9  C    0.590811
 Sum of Mulliken charges with hydrogens summed into heavy atoms =   1.00000
 Electronic spatial extent (au):  <R**2>=            301.3481
 Charge=              1.0000 electrons
 Dipole moment (field-independent basis, Debye):
    X=              0.0001    Y=              0.4722    Z=              0.0000  Tot=              0.4722
 Quadrupole moment (field-independent basis, Debye-Ang):
   XX=            -18.9620   YY=            -15.3874   ZZ=            -29.3647
   XY=             -0.0001   XZ=              0.0000   YZ=              0.0000
 Traceless Quadrupole moment (field-independent basis, Debye-Ang):
   XX=              2.2760   YY=              5.8507   ZZ=             -8.1267
   XY=             -0.0001   XZ=              0.0000   YZ=              0.0000
 Octapole moment (field-independent basis, Debye-Ang**2):
  XXX=              0.0002  YYY=              1.7298  ZZZ=              0.0000  XYY=              0.0000
  XXY=             -0.4267  XXZ=              0.0000  XZZ=              0.0001  YZZ=              0.3731
  YYZ=              0.0000  XYZ=              0.0000
 Hexadecapole moment (field-independent basis, Debye-Ang**3):
 XXXX=           -156.7674 YYYY=           -122.7665 ZZZZ=            -31.0369 XXXY=             -0.0003
 XXXZ=              0.0000 YYYX=             -0.0003 YYYZ=              0.0000 ZZZX=              0.0000
 ZZZY=              0.0000 XXYY=            -46.0101 XXZZ=            -43.0509 YYZZ=            -33.6064
 XXYZ=              0.0000 YYXZ=              0.0000 ZZXY=             -0.0001
 N-N= 1.476666655150D+02 E-N=-7.343656964188D+02  KE= 1.924876405233D+02
 Symmetry A'   KE= 1.880538529360D+02
 Symmetry A"   KE= 4.433787587232D+00
 No NMR shielding tensors so no spin-rotation constants.
 Leave Link  601 at Wed Dec  8 09:29:03 2021, MaxMem=  498073600 cpu:       1.7
 (Enter /apps/software//g09/l9999.exe)
 1\1\GINC-DLT01\SP\RMP2-FC\6-311++G(d,p)\C5H5(1+)\ITAMAR\08-Dec-2021\0\
 \#P MP2/6-311++G** DENSITY=MP2\\CH+\\1,1\C,0,-1.199545,0.348803,0.\H,0
 ,-2.209841,0.728029,0.\C,0,-0.787183,-0.932269,0.\H,0,-1.390093,-1.831
 539,0.\C,0,1.199544,0.348812,0.\H,0,2.20984,0.728037,0.\C,0,0.787184,-
 0.932265,0.\H,0,1.390101,-1.83153,0.\C,0,0.,1.160087,0.\H,0,-0.000004,
 2.247993,0.\\Version=EM64L-G09RevA.02\State=1-A'\HF=-191.9423749\MP2=-
 192.5890482\RMSD=3.530e-09\Dipole=0.0000219,0.1857644,0.\Quadrupole=1.
 692174,4.3498333,-6.0420073,-0.0000481,0.,0.\PG=CS [SG(C5H5)]\\@


0EVERYBODY IS IGNORANT, ONLY ON DIFFERENT SUBJECTS.
0          WILL ROGERS
 Job cpu time:  0 days  0 hours  2 minutes 34.3 seconds.
 File lengths (MBytes):  RWF=     10 Int=      0 D2E=      0 Chk=      3 Scr=      1
 Normal termination of Gaussian 09 at Wed Dec  8 09:29:03 2021.
