 Entering Gaussian System, Link 0=g09
 Initial command:
 /apps/software//g09/l1.exe /scratch/itamar/2420.cluster.abaxnet/Gau-26624.inp -scrdir=/scratch/itamar/2420.cluster.abaxnet/
 Entering Link 1 = /apps/software//g09/l1.exe PID=     26625.
  
 Copyright (c) 1988,1990,1992,1993,1995,1998,2003,2009, Gaussian, Inc.
                  All Rights Reserved.
  
 This is part of the Gaussian(R) 09 program.  It is based on
 the Gaussian(R) 03 system (copyright 2003, Gaussian, Inc.),
 the Gaussian(R) 98 system (copyright 1998, Gaussian, Inc.),
 the Gaussian(R) 94 system (copyright 1995, Gaussian, Inc.),
 the Gaussian 92(TM) system (copyright 1992, Gaussian, Inc.),
 the Gaussian 90(TM) system (copyright 1990, Gaussian, Inc.),
 the Gaussian 88(TM) system (copyright 1988, Gaussian, Inc.),
 the Gaussian 86(TM) system (copyright 1986, Carnegie Mellon
 University), and the Gaussian 82(TM) system (copyright 1983,
 Carnegie Mellon University). Gaussian is a federally registered
 trademark of Gaussian, Inc.
  
 This software contains proprietary and confidential information,
 including trade secrets, belonging to Gaussian, Inc.
  
 This software is provided under written license and may be
 used, copied, transmitted, or stored only in accord with that
 written license.
  
 The following legend is applicable only to US Government
 contracts under FAR:
  
                    RESTRICTED RIGHTS LEGEND
  
 Use, reproduction and disclosure by the US Government is
 subject to restrictions as set forth in subparagraphs (a)
 and (c) of the Commercial Computer Software - Restricted
 Rights clause in FAR 52.227-19.
  
 Gaussian, Inc.
 340 Quinnipiac St., Bldg. 40, Wallingford CT 06492
  
  
 ---------------------------------------------------------------
 Warning -- This program may not be used in any manner that
 competes with the business of Gaussian, Inc. or will provide
 assistance to any competitor of Gaussian, Inc.  The licensee
 of this program is prohibited from giving any competitor of
 Gaussian, Inc. access to this program.  By using this program,
 the user acknowledges that Gaussian, Inc. is engaged in the
 business of creating and licensing software in the field of
 computational chemistry and represents and warrants to the
 licensee that it is not a competitor of Gaussian, Inc. and that
 it will not use this program in any manner prohibited above.
 ---------------------------------------------------------------
  

 Cite this work as:
 Gaussian 09, Revision A.02,
 M. J. Frisch, G. W. Trucks, H. B. Schlegel, G. E. Scuseria, 
 M. A. Robb, J. R. Cheeseman, G. Scalmani, V. Barone, B. Mennucci, 
 G. A. Petersson, H. Nakatsuji, M. Caricato, X. Li, H. P. Hratchian, 
 A. F. Izmaylov, J. Bloino, G. Zheng, J. L. Sonnenberg, M. Hada, 
 M. Ehara, K. Toyota, R. Fukuda, J. Hasegawa, M. Ishida, T. Nakajima, 
 Y. Honda, O. Kitao, H. Nakai, T. Vreven, J. A. Montgomery, Jr., 
 J. E. Peralta, F. Ogliaro, M. Bearpark, J. J. Heyd, E. Brothers, 
 K. N. Kudin, V. N. Staroverov, R. Kobayashi, J. Normand, 
 K. Raghavachari, A. Rendell, J. C. Burant, S. S. Iyengar, J. Tomasi, 
 M. Cossi, N. Rega, J. M. Millam, M. Klene, J. E. Knox, J. B. Cross, 
 V. Bakken, C. Adamo, J. Jaramillo, R. Gomperts, R. E. Stratmann, 
 O. Yazyev, A. J. Austin, R. Cammi, C. Pomelli, J. W. Ochterski, 
 R. L. Martin, K. Morokuma, V. G. Zakrzewski, G. A. Voth, 
 P. Salvador, J. J. Dannenberg, S. Dapprich, A. D. Daniels, 
 O. Farkas, J. B. Foresman, J. V. Ortiz, J. Cioslowski, 
 and D. J. Fox, Gaussian, Inc., Wallingford CT, 2009.
 
 ******************************************
 Gaussian 09:  EM64L-G09RevA.02 11-Jun-2009
                 3-Dec-2021 
 ******************************************
 %Mem=3800MB
 %NProcShared=6
 Will use up to    6 processors via shared memory.
 %chk=/home/itamar/Aromaticity-test-set/T3-Boat-Like/10/boat-10.chk
 -----------------------------
 #P MP2/6-311++G** DENSITY=MP2
 -----------------------------
 1/30=1,38=1/1;
 2/12=2,17=6,18=5,40=1/2;
 3/5=4,6=6,7=1111,11=9,16=1,25=1,30=1,71=1/1,2,3;
 4//1;
 5/5=2,38=5/2;
 8/6=4,10=2/1;
 9/15=1,16=-3/6;
 10/5=1,13=10/2;
 6/7=2,8=2,9=2,10=2,22=2/1;
 99/5=1,9=1/99;
 Leave Link    1 at Fri Dec  3 11:51:03 2021, MaxMem=  498073600 cpu:       0.2
 (Enter /apps/software//g09/l101.exe)
 -------
 Boat-10
 -------
 Symbolic Z-matrix:
 Charge =  0 Multiplicity = 1
 6                    -0.00096   1.39413   0.04073 
 6                     1.20776   0.69623   0.04073 
 6                     1.20146  -0.69368  -0.08084 
 6                     0.00096  -1.39413   0.04073 
 6                    -1.20776  -0.69623   0.04073 
 6                    -1.20146   0.69368  -0.08084 
 1                    -0.00382   2.47807   0.06895 
 1                     2.14794   1.23568   0.0692 
 1                     2.13947  -1.23521  -0.13875 
 1                     0.00382  -2.47807   0.06895 
 1                    -2.14794  -1.23568   0.0692 
 1                    -2.13947   1.23521  -0.13875 
 
 NAtoms=     12 NQM=     12 NQMF=      0 NMic=      0 NMicF=      0 NTot=     12.
                    Isotopes and Nuclear Properties:
 (Nuclear quadrupole moments (NQMom) in fm**2, nuclear magnetic moments (NMagM)
  in nuclear magnetons)

  Atom         1           2           3           4           5           6           7           8           9          10
 IAtWgt=          12          12          12          12          12          12           1           1           1           1
 AtmWgt=  12.0000000  12.0000000  12.0000000  12.0000000  12.0000000  12.0000000   1.0078250   1.0078250   1.0078250   1.0078250
 NucSpn=           0           0           0           0           0           0           1           1           1           1
 AtZEff=   0.0000000   0.0000000   0.0000000   0.0000000   0.0000000   0.0000000   0.0000000   0.0000000   0.0000000   0.0000000
 NQMom=    0.0000000   0.0000000   0.0000000   0.0000000   0.0000000   0.0000000   0.0000000   0.0000000   0.0000000   0.0000000
 NMagM=    0.0000000   0.0000000   0.0000000   0.0000000   0.0000000   0.0000000   2.7928460   2.7928460   2.7928460   2.7928460

  Atom        11          12
 IAtWgt=           1           1
 AtmWgt=   1.0078250   1.0078250
 NucSpn=           1           1
 AtZEff=   0.0000000   0.0000000
 NQMom=    0.0000000   0.0000000
 NMagM=    2.7928460   2.7928460
 Leave Link  101 at Fri Dec  3 11:51:03 2021, MaxMem=  498073600 cpu:       0.2
 (Enter /apps/software//g09/l202.exe)
                          Input orientation:                          
 ---------------------------------------------------------------------
 Center     Atomic      Atomic             Coordinates (Angstroms)
 Number     Number       Type             X           Y           Z
 ---------------------------------------------------------------------
      1          6           0       -0.000961    1.394131    0.040725
      2          6           0        1.207761    0.696226    0.040725
      3          6           0        1.201464   -0.693680   -0.080840
      4          6           0        0.000961   -1.394131    0.040725
      5          6           0       -1.207761   -0.696226    0.040725
      6          6           0       -1.201464    0.693680   -0.080840
      7          1           0       -0.003820    2.478073    0.068947
      8          1           0        2.147938    1.235677    0.069195
      9          1           0        2.139474   -1.235213   -0.138753
     10          1           0        0.003820   -2.478073    0.068947
     11          1           0       -2.147938   -1.235677    0.069195
     12          1           0       -2.139474    1.235213   -0.138753
 ---------------------------------------------------------------------
                    Distance matrix (angstroms):
                    1          2          3          4          5
     1  C    0.000000
     2  C    1.395736   0.000000
     3  C    2.412376   1.395226   0.000000
     4  C    2.788263   2.413702   1.395212   0.000000
     5  C    2.413702   2.788130   2.412291   1.395736   0.000000
     6  C    1.395212   2.412291   2.774677   2.412376   1.395226
     7  H    1.084313   2.154925   3.396346   3.872310   3.395062
     8  H    2.154921   1.084320   2.154238   3.395027   3.872180
     9  H    3.395162   2.151920   1.084654   2.151907   3.395100
    10  H    3.872310   3.395062   2.154262   1.084313   2.154925
    11  H    3.395027   3.872180   3.396287   2.154921   1.084320
    12  H    2.151907   3.395100   3.858218   3.395162   2.151920
                    6          7          8          9         10
     6  C    0.000000
     7  H    2.154262   0.000000
     8  H    3.396287   2.484675   0.000000
     9  H    3.858218   4.292475   2.479639   0.000000
    10  H    3.396346   4.956152   4.288261   2.479689   0.000000
    11  H    2.154238   4.288261   4.956021   4.292452   2.484675
    12  H    1.084654   2.479689   4.292452   4.940891   4.292475
                   11         12
    11  H    0.000000
    12  H    2.479639   0.000000
 Stoichiometry    C6H6
 Framework group  C2[X(C6H6)]
 Deg. of freedom    16
 Full point group                 C2      NOp   2
 Largest Abelian subgroup         C2      NOp   2
 Largest concise Abelian subgroup C2      NOp   2
                         Standard orientation:                         
 ---------------------------------------------------------------------
 Center     Atomic      Atomic             Coordinates (Angstroms)
 Number     Number       Type             X           Y           Z
 ---------------------------------------------------------------------
      1          6           0        0.007277    1.394112   -0.040580
      2          6           0       -1.204594    0.701691   -0.040580
      3          6           0       -1.204594   -0.688230    0.080985
      4          6           0       -0.007277   -1.394112   -0.040580
      5          6           0        1.204594   -0.701691   -0.040580
      6          6           0        1.204594    0.688230    0.080985
      7          1           0        0.015047    2.478030   -0.068802
      8          1           0       -2.142318    1.245395   -0.069050
      9          1           0       -2.145048   -1.225507    0.138898
     10          1           0       -0.015047   -2.478030   -0.068802
     11          1           0        2.142318   -1.245395   -0.069050
     12          1           0        2.145048    1.225507    0.138898
 ---------------------------------------------------------------------
 Rotational constants (GHZ):      5.7177304      5.6951111      2.8627182
 Leave Link  202 at Fri Dec  3 11:51:03 2021, MaxMem=  498073600 cpu:       0.1
 (Enter /apps/software//g09/l301.exe)
 Standard basis: 6-311++G(d,p) (5D, 7F)
 Ernie: Thresh=  0.10000D-02 Tol=  0.10000D-05 Strict=F.
 There are    87 symmetry adapted basis functions of A   symmetry.
 There are    87 symmetry adapted basis functions of B   symmetry.
 Integral buffers will be    131072 words long.
 Raffenetti 1 integral format.
 Two-electron integral symmetry is turned on.
   174 basis functions,   270 primitive gaussians,   180 cartesian basis functions
    21 alpha electrons       21 beta electrons
       nuclear repulsion energy       203.5633171381 Hartrees.
 IExCor=    0 DFT=F Ex=HF Corr=None ExCW=0 ScaHFX=  1.000000
 ScaDFX=  1.000000  1.000000  1.000000  1.000000 ScalE2=  1.000000  1.000000
 IRadAn=      0 IRanWt=     -1 IRanGd=            0 ICorTp=0
 NAtoms=   12 NActive=   12 NUniq=    6 SFac= 3.00D+00 NAtFMM=   80 NAOKFM=F Big=F
 Leave Link  301 at Fri Dec  3 11:51:03 2021, MaxMem=  498073600 cpu:       0.2
 (Enter /apps/software//g09/l302.exe)
 NPDir=0 NMtPBC=     1 NCelOv=     1 NCel=       1 NClECP=     1 NCelD=      1
         NCelK=      1 NCelE2=     1 NClLst=     1 CellRange=     0.0.
 One-electron integrals computed using PRISM.
 One-electron integral symmetry used in STVInt
 NBasis=   174 RedAO= T  NBF=    87    87
 NBsUse=   174 1.00D-06 NBFU=    87    87
 Leave Link  302 at Fri Dec  3 11:51:03 2021, MaxMem=  498073600 cpu:       1.3
 (Enter /apps/software//g09/l303.exe)
 DipDrv:  MaxL=1.
 Leave Link  303 at Fri Dec  3 11:51:03 2021, MaxMem=  498073600 cpu:       0.1
 (Enter /apps/software//g09/l401.exe)
 Harris functional with IExCor=  205 diagonalized for initial guess.
 ExpMin= 3.60D-02 ExpMax= 4.56D+03 ExpMxC= 6.82D+02 IAcc=3 IRadAn=         0 AccDes= 0.00D+00
 HarFok:  IExCor=  205 AccDes= 0.00D+00 IRadAn=         0 IDoV= 1
 ScaDFX=  1.000000  1.000000  1.000000  1.000000
 FoFCou: FMM=F IPFlag=           0 FMFlag=      100000 FMFlg1=           0
         NFxFlg=           0 DoJE=T BraDBF=F KetDBF=T FulRan=T
         Omega=  0.000000  0.000000  1.000000  0.000000  0.000000 ICntrl=     500 IOpCl=  0
         NMat0=    1 NMatS0=    1 NMatT0=    0 NMatD0=    1 NMtDS0=    0 NMtDT0=    0
         I1Cent=           4 NGrid=           0.
 Petite list used in FoFCou.
 Harris En= -231.147793489610    
 Initial guess orbital symmetries:
       Occupied  (A) (B) (B) (A) (A) (B) (A) (B) (B) (A) (A) (A)
                 (B) (B) (B) (B) (A) (A) (A) (B) (B)
       Virtual   (A) (A) (A) (B) (B) (B) (A) (A) (A) (A) (B) (B)
                 (B) (B) (A) (B) (B) (A) (A) (B) (B) (A) (A) (A)
                 (A) (B) (B) (B) (B) (A) (A) (A) (A) (A) (B) (B)
                 (A) (B) (A) (B) (B) (B) (A) (B) (A) (A) (B) (A)
                 (A) (A) (B) (B) (A) (B) (B) (A) (A) (B) (A) (A)
                 (B) (B) (B) (A) (A) (B) (B) (A) (B) (B) (B) (A)
                 (A) (B) (B) (A) (B) (A) (A) (A) (A) (B) (B) (B)
                 (B) (A) (A) (A) (B) (A) (A) (B) (B) (A) (B) (B)
                 (A) (A) (B) (B) (B) (A) (B) (B) (A) (B) (A) (A)
                 (A) (A) (B) (A) (A) (A) (B) (B) (B) (A) (B) (B)
                 (A) (B) (A) (B) (B) (B) (B) (A) (A) (A) (A) (A)
                 (A) (B) (B) (A) (A) (B) (B) (A) (B) (A) (A) (B)
                 (B) (B) (A) (A) (B) (B) (A) (A) (B)
 The electronic state of the initial guess is 1-A.
 Leave Link  401 at Fri Dec  3 11:51:04 2021, MaxMem=  498073600 cpu:       3.0
 (Enter /apps/software//g09/l502.exe)
 Closed shell SCF:
 Requested convergence on RMS density matrix=1.00D-08 within 128 cycles.
 Requested convergence on MAX density matrix=1.00D-06.
 Requested convergence on             energy=1.00D-06.
 No special actions if energy rises.
 Using DIIS extrapolation, IDIIS=  1040.
 Integral symmetry usage will be decided dynamically.
 Keep R1 ints in memory in canonical form, NReq=135772999.
 IEnd=      118010 IEndB=      118010 NGot=   498073600 MDV=   365314588
 LenX=   365314588 LenY=   365281747
 Symmetry not used in FoFDir.
 MinBra= 0 MaxBra= 2 Meth= 1.
 IRaf=       0 NMat=   1 IRICut=       1 DoRegI=T DoRafI=F ISym2E= 0 JSym2E=0.

 Cycle   1  Pass 1  IDiag  1:
 E= -230.449064753708    
 DIIS: error= 6.68D-02 at cycle   1 NSaved=   1.
 NSaved= 1 IEnMin= 1 EnMin= -230.449064753708     IErMin= 1 ErrMin= 6.68D-02
 ErrMax= 6.68D-02 EMaxC= 1.00D-01 BMatC= 5.17D-01 BMatP= 5.17D-01
 IDIUse=3 WtCom= 3.32D-01 WtEn= 6.68D-01
 Coeff-Com:  0.100D+01
 Coeff-En:   0.100D+01
 Coeff:      0.100D+01
 Gap=     0.476 Goal=   None    Shift=    0.000
 GapD=    0.476 DampG=2.000 DampE=0.500 DampFc=1.0000 IDamp=-1.
 RMSDP=1.15D-01 MaxDP=3.31D+00              OVMax= 1.60D-01

 Cycle   2  Pass 1  IDiag  1:
 E= -230.703178415263     Delta-E=       -0.254113661554 Rises=F Damp=F
 DIIS: error= 2.98D-02 at cycle   2 NSaved=   2.
 NSaved= 2 IEnMin= 2 EnMin= -230.703178415263     IErMin= 2 ErrMin= 2.98D-02
 ErrMax= 2.98D-02 EMaxC= 1.00D-01 BMatC= 4.96D-02 BMatP= 5.17D-01
 IDIUse=3 WtCom= 7.02D-01 WtEn= 2.98D-01
 Coeff-Com:  0.158D+00 0.842D+00
 Coeff-En:   0.000D+00 0.100D+01
 Coeff:      0.111D+00 0.889D+00
 Gap=     0.417 Goal=   None    Shift=    0.000
 RMSDP=1.79D-01 MaxDP=5.06D+00 DE=-2.54D-01 OVMax= 5.91D-02

 Cycle   3  Pass 1  IDiag  1:
 E= -230.746083105615     Delta-E=       -0.042904690352 Rises=F Damp=F
 DIIS: error= 8.29D-03 at cycle   3 NSaved=   3.
 NSaved= 3 IEnMin= 3 EnMin= -230.746083105615     IErMin= 3 ErrMin= 8.29D-03
 ErrMax= 8.29D-03 EMaxC= 1.00D-01 BMatC= 5.90D-03 BMatP= 4.96D-02
 IDIUse=3 WtCom= 9.17D-01 WtEn= 8.29D-02
 Coeff-Com: -0.199D-01 0.229D+00 0.791D+00
 Coeff-En:   0.000D+00 0.000D+00 0.100D+01
 Coeff:     -0.182D-01 0.210D+00 0.808D+00
 Gap=     0.377 Goal=   None    Shift=    0.000
 RMSDP=1.33D-02 MaxDP=3.75D-01 DE=-4.29D-02 OVMax= 1.59D-02

 Cycle   4  Pass 1  IDiag  1:
 E= -230.751772974185     Delta-E=       -0.005689868571 Rises=F Damp=F
 DIIS: error= 1.34D-03 at cycle   4 NSaved=   4.
 NSaved= 4 IEnMin= 4 EnMin= -230.751772974185     IErMin= 4 ErrMin= 1.34D-03
 ErrMax= 1.34D-03 EMaxC= 1.00D-01 BMatC= 3.84D-05 BMatP= 5.90D-03
 IDIUse=3 WtCom= 9.87D-01 WtEn= 1.34D-02
 Coeff-Com: -0.179D-02-0.168D-01 0.812D-02 0.101D+01
 Coeff-En:   0.000D+00 0.000D+00 0.000D+00 0.100D+01
 Coeff:     -0.177D-02-0.165D-01 0.802D-02 0.101D+01
 Gap=     0.378 Goal=   None    Shift=    0.000
 RMSDP=5.28D-03 MaxDP=1.48D-01 DE=-5.69D-03 OVMax= 2.21D-03

 Cycle   5  Pass 1  IDiag  1:
 E= -230.751831146168     Delta-E=       -0.000058171983 Rises=F Damp=F
 DIIS: error= 2.32D-04 at cycle   5 NSaved=   5.
 NSaved= 5 IEnMin= 5 EnMin= -230.751831146168     IErMin= 5 ErrMin= 2.32D-04
 ErrMax= 2.32D-04 EMaxC= 1.00D-01 BMatC= 1.92D-06 BMatP= 3.84D-05
 IDIUse=3 WtCom= 9.98D-01 WtEn= 2.32D-03
 Coeff-Com:  0.108D-02-0.855D-02-0.388D-01-0.169D+00 0.121D+01
 Coeff-En:   0.000D+00 0.000D+00 0.000D+00 0.000D+00 0.100D+01
 Coeff:      0.108D-02-0.853D-02-0.387D-01-0.168D+00 0.121D+01
 Gap=     0.378 Goal=   None    Shift=    0.000
 RMSDP=1.13D-03 MaxDP=3.17D-02 DE=-5.82D-05 OVMax= 6.92D-04

 Cycle   6  Pass 1  IDiag  1:
 E= -230.751835281833     Delta-E=       -0.000004135665 Rises=F Damp=F
 DIIS: error= 1.98D-05 at cycle   6 NSaved=   6.
 NSaved= 6 IEnMin= 6 EnMin= -230.751835281833     IErMin= 6 ErrMin= 1.98D-05
 ErrMax= 1.98D-05 EMaxC= 1.00D-01 BMatC= 2.15D-08 BMatP= 1.92D-06
 IDIUse=1 WtCom= 1.00D+00 WtEn= 0.00D+00
 Coeff-Com: -0.786D-04 0.985D-03 0.435D-02 0.101D-01-0.158D+00 0.114D+01
 Coeff:     -0.786D-04 0.985D-03 0.435D-02 0.101D-01-0.158D+00 0.114D+01
 Gap=     0.378 Goal=   None    Shift=    0.000
 RMSDP=9.55D-06 MaxDP=2.49D-04 DE=-4.14D-06 OVMax= 9.01D-05

 Cycle   7  Pass 1  IDiag  1:
 E= -230.751835335860     Delta-E=       -0.000000054027 Rises=F Damp=F
 DIIS: error= 7.85D-06 at cycle   7 NSaved=   7.
 NSaved= 7 IEnMin= 7 EnMin= -230.751835335860     IErMin= 7 ErrMin= 7.85D-06
 ErrMax= 7.85D-06 EMaxC= 1.00D-01 BMatC= 2.86D-09 BMatP= 2.15D-08
 IDIUse=1 WtCom= 1.00D+00 WtEn= 0.00D+00
 Coeff-Com: -0.572D-04 0.519D-03 0.229D-02 0.847D-02-0.761D-01 0.210D+00
 Coeff-Com:  0.854D+00
 Coeff:     -0.572D-04 0.519D-03 0.229D-02 0.847D-02-0.761D-01 0.210D+00
 Coeff:      0.854D+00
 Gap=     0.378 Goal=   None    Shift=    0.000
 RMSDP=5.65D-06 MaxDP=1.49D-04 DE=-5.40D-08 OVMax= 2.32D-05

 Cycle   8  Pass 1  IDiag  1:
 E= -230.751835341076     Delta-E=       -0.000000005216 Rises=F Damp=F
 DIIS: error= 3.49D-06 at cycle   8 NSaved=   8.
 NSaved= 8 IEnMin= 8 EnMin= -230.751835341076     IErMin= 8 ErrMin= 3.49D-06
 ErrMax= 3.49D-06 EMaxC= 1.00D-01 BMatC= 3.82D-10 BMatP= 2.86D-09
 IDIUse=1 WtCom= 1.00D+00 WtEn= 0.00D+00
 Coeff-Com:  0.151D-04-0.188D-03-0.870D-03-0.220D-02 0.315D-01-0.208D+00
 Coeff-Com: -0.516D-01 0.123D+01
 Coeff:      0.151D-04-0.188D-03-0.870D-03-0.220D-02 0.315D-01-0.208D+00
 Coeff:     -0.516D-01 0.123D+01
 Gap=     0.378 Goal=   None    Shift=    0.000
 RMSDP=2.38D-06 MaxDP=5.88D-05 DE=-5.22D-09 OVMax= 1.80D-05

 Cycle   9  Pass 1  IDiag  1:
 E= -230.751835342319     Delta-E=       -0.000000001244 Rises=F Damp=F
 DIIS: error= 7.51D-07 at cycle   9 NSaved=   9.
 NSaved= 9 IEnMin= 9 EnMin= -230.751835342319     IErMin= 9 ErrMin= 7.51D-07
 ErrMax= 7.51D-07 EMaxC= 1.00D-01 BMatC= 1.58D-11 BMatP= 3.82D-10
 IDIUse=1 WtCom= 1.00D+00 WtEn= 0.00D+00
 Coeff-Com: -0.274D-05 0.447D-04 0.227D-03 0.438D-03-0.866D-02 0.716D-01
 Coeff-Com: -0.287D-01-0.482D+00 0.145D+01
 Coeff:     -0.274D-05 0.447D-04 0.227D-03 0.438D-03-0.866D-02 0.716D-01
 Coeff:     -0.287D-01-0.482D+00 0.145D+01
 Gap=     0.378 Goal=   None    Shift=    0.000
 RMSDP=3.52D-06 MaxDP=9.74D-05 DE=-1.24D-09 OVMax= 4.36D-06

 Cycle  10  Pass 1  IDiag  1:
 E= -230.751835342383     Delta-E=       -0.000000000063 Rises=F Damp=F
 DIIS: error= 5.82D-08 at cycle  10 NSaved=  10.
 NSaved=10 IEnMin=10 EnMin= -230.751835342383     IErMin=10 ErrMin= 5.82D-08
 ErrMax= 5.82D-08 EMaxC= 1.00D-01 BMatC= 2.96D-13 BMatP= 1.58D-11
 IDIUse=1 WtCom= 1.00D+00 WtEn= 0.00D+00
 Coeff-Com:  0.201D-06-0.497D-05-0.313D-04-0.302D-04 0.120D-02-0.115D-01
 Coeff-Com:  0.793D-02 0.839D-01-0.355D+00 0.127D+01
 Coeff:      0.201D-06-0.497D-05-0.313D-04-0.302D-04 0.120D-02-0.115D-01
 Coeff:      0.793D-02 0.839D-01-0.355D+00 0.127D+01
 Gap=     0.378 Goal=   None    Shift=    0.000
 RMSDP=1.85D-07 MaxDP=5.47D-06 DE=-6.35D-11 OVMax= 4.05D-07

 Cycle  11  Pass 1  IDiag  1:
 E= -230.751835342381     Delta-E=        0.000000000002 Rises=F Damp=F
 DIIS: error= 1.10D-08 at cycle  11 NSaved=  11.
 NSaved=11 IEnMin=10 EnMin= -230.751835342383     IErMin=11 ErrMin= 1.10D-08
 ErrMax= 1.10D-08 EMaxC= 1.00D-01 BMatC= 8.17D-15 BMatP= 2.96D-13
 IDIUse=1 WtCom= 1.00D+00 WtEn= 0.00D+00
 Coeff-Com:  0.308D-07-0.185D-06 0.387D-06-0.679D-05-0.872D-05 0.333D-03
 Coeff-Com: -0.836D-03-0.278D-02 0.263D-01-0.217D+00 0.119D+01
 Coeff:      0.308D-07-0.185D-06 0.387D-06-0.679D-05-0.872D-05 0.333D-03
 Coeff:     -0.836D-03-0.278D-02 0.263D-01-0.217D+00 0.119D+01
 Gap=     0.378 Goal=   None    Shift=    0.000
 RMSDP=2.43D-08 MaxDP=6.74D-07 DE= 1.59D-12 OVMax= 7.05D-08

 Cycle  12  Pass 1  IDiag  1:
 E= -230.751835342379     Delta-E=        0.000000000002 Rises=F Damp=F
 DIIS: error= 2.60D-09 at cycle  12 NSaved=  12.
 NSaved=12 IEnMin=10 EnMin= -230.751835342383     IErMin=12 ErrMin= 2.60D-09
 ErrMax= 2.60D-09 EMaxC= 1.00D-01 BMatC= 6.15D-16 BMatP= 8.17D-15
 IDIUse=1 WtCom= 1.00D+00 WtEn= 0.00D+00
 Coeff-Com: -0.101D-07 0.303D-06 0.208D-05 0.101D-05-0.774D-04 0.770D-03
 Coeff-Com: -0.611D-03-0.552D-02 0.246D-01-0.982D-01 0.986D-01 0.980D+00
 Coeff:     -0.101D-07 0.303D-06 0.208D-05 0.101D-05-0.774D-04 0.770D-03
 Coeff:     -0.611D-03-0.552D-02 0.246D-01-0.982D-01 0.986D-01 0.980D+00
 Gap=     0.378 Goal=   None    Shift=    0.000
 RMSDP=1.12D-08 MaxDP=3.17D-07 DE= 1.93D-12 OVMax= 1.87D-08

 Cycle  13  Pass 1  IDiag  1:
 E= -230.751835342383     Delta-E=       -0.000000000003 Rises=F Damp=F
 DIIS: error= 5.33D-10 at cycle  13 NSaved=  13.
 NSaved=13 IEnMin=10 EnMin= -230.751835342383     IErMin=13 ErrMin= 5.33D-10
 ErrMax= 5.33D-10 EMaxC= 1.00D-01 BMatC= 2.88D-17 BMatP= 6.15D-16
 IDIUse=1 WtCom= 1.00D+00 WtEn= 0.00D+00
 Coeff-Com: -0.133D-08-0.111D-07-0.192D-06 0.398D-06 0.698D-05-0.816D-04
 Coeff-Com:  0.911D-04 0.662D-03-0.393D-02 0.238D-01-0.941D-01-0.866D-01
 Coeff-Com:  0.116D+01
 Coeff:     -0.133D-08-0.111D-07-0.192D-06 0.398D-06 0.698D-05-0.816D-04
 Coeff:      0.911D-04 0.662D-03-0.393D-02 0.238D-01-0.941D-01-0.866D-01
 Coeff:      0.116D+01
 Gap=     0.378 Goal=   None    Shift=    0.000
 RMSDP=1.96D-08 MaxDP=5.42D-07 DE=-3.18D-12 OVMax= 5.16D-09

 Cycle  14  Pass 1  IDiag  1:
 E= -230.751835342381     Delta-E=        0.000000000001 Rises=F Damp=F
 DIIS: error= 1.07D-10 at cycle  14 NSaved=  14.
 NSaved=14 IEnMin=10 EnMin= -230.751835342383     IErMin=14 ErrMin= 1.07D-10
 ErrMax= 1.07D-10 EMaxC= 1.00D-01 BMatC= 7.75D-19 BMatP= 2.88D-17
 IDIUse=1 WtCom= 1.00D+00 WtEn= 0.00D+00
 Coeff-Com:  0.477D-09-0.662D-08-0.271D-07-0.473D-07 0.916D-06-0.737D-05
 Coeff-Com: -0.201D-05 0.578D-04-0.117D-03-0.321D-03 0.655D-02-0.102D-01
 Coeff-Com: -0.105D+00 0.111D+01
 Coeff:      0.477D-09-0.662D-08-0.271D-07-0.473D-07 0.916D-06-0.737D-05
 Coeff:     -0.201D-05 0.578D-04-0.117D-03-0.321D-03 0.655D-02-0.102D-01
 Coeff:     -0.105D+00 0.111D+01
 Gap=     0.378 Goal=   None    Shift=    0.000
 RMSDP=9.29D-09 MaxDP=2.53D-07 DE= 1.25D-12 OVMax= 6.01D-10

 SCF Done:  E(RHF) =  -230.751835342     A.U. after   14 cycles
             Convg  =    0.9286D-08             -V/T =  2.0013
 KE= 2.304537041158D+02 PE=-9.439209672918D+02 EE= 2.791521106956D+02
 Leave Link  502 at Fri Dec  3 11:51:14 2021, MaxMem=  498073600 cpu:      59.7
 (Enter /apps/software//g09/l801.exe)
 ExpMin= 3.60D-02 ExpMax= 4.56D+03 ExpMxC= 6.82D+02 IAcc=3 IRadAn=         5 AccDes= 0.00D+00
 HarFok:  IExCor=  205 AccDes= 0.00D+00 IRadAn=         5 IDoV=-2
 ScaDFX=  1.000000  1.000000  1.000000  1.000000
 Largest valence mixing into a core orbital is  1.52D-04
 Largest core mixing into a valence orbital is  4.00D-05
 Range of M.O.s used for correlation:     7   174
 NBasis=   174 NAE=    21 NBE=    21 NFC=     6 NFV=     0
 NROrb=    168 NOA=    15 NOB=    15 NVA=   153 NVB=   153

 **** Warning!!: The largest alpha MO coefficient is  0.19573864D+03

 Leave Link  801 at Fri Dec  3 11:51:14 2021, MaxMem=  498073600 cpu:       1.3
 (Enter /apps/software//g09/l906.exe)
 Frozen-core derivative calculation, NFC=   6 NFV=   0.
 FulOut=F Deriv=T AODrv=F NAtomX=    12
   MMem=         328  MDisk=          15 MDiskD=          15
  W3Min=      657720 MinDsk=     1009670 NBas6D=         180
 NBas2D=       16542    NTT=       16290    LW2=     2040000
    MDV=   497692964 MDiskM=       38247 NBas2p=        8385
 Fully in-core method, ICMem=   280919484.
 IMap=   1   2   3   4   5   6   7   8   9  10  11  12  13  14  15  16  17  18  19  20
 IMap=  21
 JobTyp=1 Pass  1 fully in-core, NPsUse=  6.
 Compute canonical integrals, IntTyp=   4.
 Symmetry not used in FoFDir.
 MinBra= 0 MaxBra= 2 Meth= 1.
 IRaf=       0 NMat=   1 IRICut=       1 DoRegI=T DoRafI=F ISym2E= 0 JSym2E=0.
 Spin components of T(2) and E(2):
     alpha-alpha T2 =       0.4249557013D-01 E2=     -0.1079756024D+00
     alpha-beta  T2 =       0.2234430475D+00 E2=     -0.6135331230D+00
     beta-beta   T2 =       0.4249557013D-01 E2=     -0.1079756024D+00
 The integrals were generated   1 times.
 ANorm=    0.1143868081D+01
 E2 =    -0.8294843279D+00 EUMP2 =    -0.23158131967027D+03
 Leave Link  906 at Fri Dec  3 11:52:00 2021, MaxMem=  498073600 cpu:     277.5
 (Enter /apps/software//g09/l1002.exe)
 Minotr:  Closed shell wavefunction.
          Computing MP2/KS-MP2 derivatives.
          Using Z-Vector for PSCF gradient.
          Skipping F1 and S1 gradient terms here.
          Frozen-core window.
          Direct CPHF calculation.
          Differentiating once with respect to electric field.
                with respect to dipole field.
          Electric field/nuclear overlap derivatives assumed to be zero.
          Using symmetry in CPHF.
          Requested convergence is 1.0D-10 RMS, and 1.0D-09 maximum.
          NewPWx=F KeepS1=T KeepF1=T KeepIn=T MapXYZ=F SortEE=F KeepMc=T.
          MDV=     498073500 using IRadAn=       0.
          Keep R1 ints in memory in canonical form, NReq=133511598.
 Symmetry not used in FoFDir.
 MinBra= 0 MaxBra= 2 Meth= 1.
 IRaf=       0 NMat=   1 IRICut=       1 DoRegI=T DoRafI=F ISym2E= 0 JSym2E=0.
          Solving linear equations separately, MaxMat=       0.
          There are     1 degrees of freedom in the 1st order CPHF.  IDoFFX=0.
 LinEq1:  Iter=  0 NonCon=     1 RMS=3.39D-03 Max=7.19D-02
 AX will form     1 AO Fock derivatives at one time.
 LinEq1:  Iter=  1 NonCon=     1 RMS=8.32D-04 Max=1.50D-02
 LinEq1:  Iter=  2 NonCon=     1 RMS=2.36D-04 Max=5.37D-03
 LinEq1:  Iter=  3 NonCon=     1 RMS=4.98D-05 Max=7.82D-04
 LinEq1:  Iter=  4 NonCon=     1 RMS=7.56D-06 Max=7.57D-05
 LinEq1:  Iter=  5 NonCon=     1 RMS=9.21D-07 Max=1.49D-05
 LinEq1:  Iter=  6 NonCon=     1 RMS=2.29D-07 Max=4.75D-06
 LinEq1:  Iter=  7 NonCon=     1 RMS=9.05D-08 Max=1.62D-06
 LinEq1:  Iter=  8 NonCon=     1 RMS=1.24D-08 Max=1.52D-07
 LinEq1:  Iter=  9 NonCon=     1 RMS=1.48D-09 Max=1.56D-08
 LinEq1:  Iter= 10 NonCon=     1 RMS=1.79D-10 Max=1.75D-09
 LinEq1:  Iter= 11 NonCon=     0 RMS=4.55D-11 Max=5.24D-10
 Linear equations converged to 1.000D-10 1.000D-09 after    11 iterations.
 End of Minotr Frequency-dependent properties file   721 does not exist.
 End of Minotr Frequency-dependent properties file   722 does not exist.
 Leave Link 1002 at Fri Dec  3 11:52:06 2021, MaxMem=  498073600 cpu:      34.7
 (Enter /apps/software//g09/l601.exe)
 Copying SCF densities to generalized density rwf, IOpCl= 0 IROHF=0.

 **********************************************************************

            Population analysis using the MP2 density.

 **********************************************************************

 Orbital symmetries:
       Occupied  (A) (B) (B) (A) (A) (B) (A) (B) (B) (A) (A) (A)
                 (B) (B) (B) (B) (A) (A) (A) (B) (B)
       Virtual   (A) (B) (B) (A) (A) (B) (A) (A) (A) (B) (B) (A)
                 (B) (A) (B) (B) (A) (A) (B) (A) (A) (A) (A) (B)
                 (B) (B) (B) (B) (A) (A) (A) (B) (A) (B) (B) (B)
                 (A) (A) (B) (A) (A) (B) (B) (B) (A) (B) (A) (B)
                 (B) (A) (A) (A) (B) (B) (A) (A) (A) (B) (A) (B)
                 (B) (B) (A) (A) (A) (B) (B) (A) (B) (A) (B) (A)
                 (B) (A) (B) (B) (A) (B) (A) (A) (B) (A) (B) (B)
                 (B) (A) (B) (A) (A) (A) (A) (B) (B) (A) (B) (B)
                 (A) (A) (B) (B) (B) (A) (B) (B) (B) (A) (A) (A)
                 (A) (B) (A) (A) (A) (A) (B) (B) (B) (B) (B) (A)
                 (A) (B) (B) (A) (B) (A) (B) (B) (A) (A) (A) (A)
                 (A) (B) (B) (A) (A) (B) (B) (A) (B) (A) (A) (B)
                 (B) (B) (A) (A) (B) (B) (A) (A) (B)
 The electronic state is 1-A.
 Alpha  occ. eigenvalues --  -11.23918 -11.23870 -11.23853 -11.23747 -11.23728
 Alpha  occ. eigenvalues --  -11.23677  -1.15251  -1.01607  -1.01593  -0.82459
 Alpha  occ. eigenvalues --   -0.82456  -0.71062  -0.64494  -0.61953  -0.58988
 Alpha  occ. eigenvalues --   -0.58877  -0.50512  -0.49648  -0.49249  -0.33611
 Alpha  occ. eigenvalues --   -0.33599
 Alpha virt. eigenvalues --    0.04204   0.04900   0.04932   0.06625   0.06892
 Alpha virt. eigenvalues --    0.09034   0.10595   0.10934   0.12438   0.14768
 Alpha virt. eigenvalues --    0.15222   0.16078   0.16318   0.18113   0.18279
 Alpha virt. eigenvalues --    0.18468   0.18531   0.19233   0.20149   0.21139
 Alpha virt. eigenvalues --    0.21192   0.21645   0.21698   0.22298   0.22854
 Alpha virt. eigenvalues --    0.23788   0.24315   0.25010   0.26500   0.28498
 Alpha virt. eigenvalues --    0.29690   0.31293   0.33547   0.36128   0.40374
 Alpha virt. eigenvalues --    0.40986   0.41048   0.43011   0.43288   0.47895
 Alpha virt. eigenvalues --    0.49863   0.50636   0.51010   0.60448   0.60855
 Alpha virt. eigenvalues --    0.71610   0.72026   0.72363   0.72864   0.73837
 Alpha virt. eigenvalues --    0.74975   0.75245   0.75774   0.76305   0.79966
 Alpha virt. eigenvalues --    0.81948   0.82046   0.88227   0.90560   0.92969
 Alpha virt. eigenvalues --    0.93311   0.94010   0.95188   0.96915   0.97604
 Alpha virt. eigenvalues --    0.98452   1.01714   1.05786   1.09754   1.11465
 Alpha virt. eigenvalues --    1.11801   1.12108   1.12305   1.21493   1.26679
 Alpha virt. eigenvalues --    1.27754   1.31839   1.32601   1.39457   1.40139
 Alpha virt. eigenvalues --    1.53139   1.55591   1.71294   1.78055   1.78618
 Alpha virt. eigenvalues --    1.79703   1.82683   1.84515   1.84876   1.90369
 Alpha virt. eigenvalues --    1.90871   1.92441   1.93347   1.99430   2.05493
 Alpha virt. eigenvalues --    2.05793   2.10089   2.10261   2.12884   2.18873
 Alpha virt. eigenvalues --    2.20530   2.21417   2.29133   2.29218   2.30802
 Alpha virt. eigenvalues --    2.33559   2.34079   2.38362   2.38748   2.63148
 Alpha virt. eigenvalues --    2.64490   2.71922   2.74252   2.74741   2.81407
 Alpha virt. eigenvalues --    2.81837   2.90231   2.95295   2.95967   2.98831
 Alpha virt. eigenvalues --    3.00588   3.01808   3.02602   3.04869   3.05407
 Alpha virt. eigenvalues --    3.07194   3.18825   3.20901   3.22903   3.29216
 Alpha virt. eigenvalues --    3.31205   3.31769   3.33719   3.48182   3.54525
 Alpha virt. eigenvalues --    3.75902   3.77451   3.90014   3.90456   3.91971
 Alpha virt. eigenvalues --    4.04680   4.39602   4.41140   4.48434   4.56267
 Alpha virt. eigenvalues --    4.58495   5.23271  24.74857  25.13067  25.13495
 Alpha virt. eigenvalues --   25.25393  25.25767  25.34493
          Condensed to atoms (all electrons):
              1          2          3          4          5          6
     1  C   13.731517  -7.287543   6.254826  -5.779868   6.460255  -7.475014
     2  C   -7.287543  13.730837  -7.474507   6.460255  -5.780032   6.255065
     3  C    6.254826  -7.474507  13.898561  -7.475014   6.255065  -5.558143
     4  C   -5.779868   6.460255  -7.475014  13.731517  -7.287543   6.254826
     5  C    6.460255  -5.780032   6.255065  -7.287543  13.730837  -7.474507
     6  C   -7.475014   6.255065  -5.558143   6.254826  -7.474507  13.898561
     7  H    0.841368  -0.408729   0.213325  -0.161478   0.250134  -0.461148
     8  H   -0.408719   0.841221  -0.460986   0.250078  -0.161504   0.213382
     9  H    0.223186  -0.475429   0.911402  -0.475496   0.223233  -0.138867
    10  H   -0.161478   0.250134  -0.461148   0.841368  -0.408729   0.213325
    11  H    0.250078  -0.161504   0.213382  -0.408719   0.841221  -0.460986
    12  H   -0.475496   0.223233  -0.138867   0.223186  -0.475429   0.911402
              7          8          9         10         11         12
     1  C    0.841368  -0.408719   0.223186  -0.161478   0.250078  -0.475496
     2  C   -0.408729   0.841221  -0.475429   0.250134  -0.161504   0.223233
     3  C    0.213325  -0.460986   0.911402  -0.461148   0.213382  -0.138867
     4  C   -0.161478   0.250078  -0.475496   0.841368  -0.408719   0.223186
     5  C    0.250134  -0.161504   0.223233  -0.408729   0.841221  -0.475429
     6  C   -0.461148   0.213382  -0.138867   0.213325  -0.460986   0.911402
     7  H    0.606213  -0.025239   0.004023  -0.002732   0.008349  -0.040585
     8  H   -0.025239   0.606163  -0.040555   0.008349  -0.002736   0.004030
     9  H    0.004023  -0.040555   0.634437  -0.040585   0.004030  -0.000374
    10  H   -0.002732   0.008349  -0.040585   0.606213  -0.025239   0.004023
    11  H    0.008349  -0.002736   0.004030  -0.025239   0.606163  -0.040555
    12  H   -0.040585   0.004030  -0.000374   0.004023  -0.040555   0.634437
 Mulliken atomic charges:
              1
     1  C   -0.173112
     2  C   -0.173002
     3  C   -0.177897
     4  C   -0.173112
     5  C   -0.173002
     6  C   -0.177897
     7  H    0.176500
     8  H    0.176515
     9  H    0.170996
    10  H    0.176500
    11  H    0.176515
    12  H    0.170996
 Sum of Mulliken atomic charges =   0.00000
 Mulliken charges with hydrogens summed into heavy atoms:
              1
     1  C    0.003387
     2  C    0.003513
     3  C   -0.006901
     4  C    0.003387
     5  C    0.003513
     6  C   -0.006901
 Sum of Mulliken charges with hydrogens summed into heavy atoms =   0.00000
 Electronic spatial extent (au):  <R**2>=            459.8007
 Charge=              0.0000 electrons
 Dipole moment (field-independent basis, Debye):
    X=              0.0000    Y=              0.0000    Z=              0.0008  Tot=              0.0008
 Quadrupole moment (field-independent basis, Debye-Ang):
   XX=            -32.6435   YY=            -32.5929   ZZ=            -40.7789
   XY=             -0.0422   XZ=              0.0000   YZ=              0.0000
 Traceless Quadrupole moment (field-independent basis, Debye-Ang):
   XX=              2.6949   YY=              2.7455   ZZ=             -5.4405
   XY=             -0.0422   XZ=              0.0000   YZ=              0.0000
 Octapole moment (field-independent basis, Debye-Ang**2):
  XXX=              0.0000  YYY=              0.0000  ZZZ=              0.0046  XYY=              0.0000
  XXY=              0.0000  XXZ=              0.5210  XZZ=              0.0000  YZZ=              0.0000
  YYZ=             -0.5290  XYZ=              0.8934
 Hexadecapole moment (field-independent basis, Debye-Ang**3):
 XXXX=           -279.4266 YYYY=           -279.2557 ZZZZ=            -52.1724 XXXY=             -0.3051
 XXXZ=              0.0000 YYYX=              0.1519 YYYZ=              0.0000 ZZZX=              0.0000
 ZZZY=              0.0000 XXYY=            -93.2844 XXZZ=            -66.1098 YYZZ=            -66.2172
 XXYZ=              0.0000 YYXZ=              0.0000 ZZXY=              0.0882
 N-N= 2.035633171381D+02 E-N=-9.447626600215D+02  KE= 2.314712287281D+02
 Symmetry A    KE= 1.144054478028D+02
 Symmetry B    KE= 1.170657809253D+02
 No NMR shielding tensors so no spin-rotation constants.
 Leave Link  601 at Fri Dec  3 11:52:07 2021, MaxMem=  498073600 cpu:       1.6
 (Enter /apps/software//g09/l9999.exe)
 1\1\GINC-DLT06\SP\RMP2-FC\6-311++G(d,p)\C6H6\ITAMAR\03-Dec-2021\0\\#P 
 MP2/6-311++G** DENSITY=MP2\\Boat-10\\0,1\C,0,-0.000961,1.394131,0.0407
 25\C,0,1.207761,0.696226,0.040725\C,0,1.201464,-0.69368,-0.08084\C,0,0
 .000961,-1.394131,0.040725\C,0,-1.207761,-0.696226,0.040725\C,0,-1.201
 464,0.69368,-0.08084\H,0,-0.00382,2.478073,0.068947\H,0,2.147938,1.235
 677,0.069195\H,0,2.139474,-1.235213,-0.138753\H,0,0.00382,-2.478073,0.
 068947\H,0,-2.147938,-1.235677,0.069195\H,0,-2.139474,1.235213,-0.1387
 53\\Version=EM64L-G09RevA.02\State=1-A\HF=-230.7518353\MP2=-231.581319
 7\RMSD=9.286e-09\Dipole=0.,0.,-0.0003105\Quadrupole=2.0038832,2.040959
 1,-4.0448423,0.0315678,0.,0.\PG=C02 [X(C6H6)]\\@


 BREAD HAS TO MOLD IN ORDER TO GET PENICILLIN.
          -- JERRY BOATZ
 Job cpu time:  0 days  0 hours  6 minutes 21.0 seconds.
 File lengths (MBytes):  RWF=     14 Int=      0 D2E=      0 Chk=      4 Scr=      1
 Normal termination of Gaussian 09 at Fri Dec  3 11:52:07 2021.
