Boat-10                                                                 
SP        RMP2-FC                                                     6-311++G(d,p)       
Number of atoms                            I               12
Info1-9                                    I   N=           9
          25          21           0           0           0         110
           1           2           1
Charge                                     I                0
Multiplicity                               I                1
Number of electrons                        I               42
Number of alpha electrons                  I               21
Number of beta electrons                   I               21
Number of basis functions                  I              174
Number of independent functions            I              174
Number of point charges in /Mol/           I                0
Number of translation vectors              I                0
Atomic numbers                             I   N=          12
           6           6           6           6           6           6
           1           1           1           1           1           1
Nuclear charges                            R   N=          12
  6.00000000E+00  6.00000000E+00  6.00000000E+00  6.00000000E+00  6.00000000E+00
  6.00000000E+00  1.00000000E+00  1.00000000E+00  1.00000000E+00  1.00000000E+00
  1.00000000E+00  1.00000000E+00
Current cartesian coordinates              R   N=          36
  1.37516633E-02  2.63449052E+00 -7.66847265E-02 -2.27635346E+00  1.32600304E+00
 -7.66847265E-02 -2.27635346E+00 -1.30056561E+00  1.53039831E-01 -1.37516633E-02
 -2.63449052E+00 -7.66847265E-02  2.27635346E+00 -1.32600304E+00 -7.66847265E-02
  2.27635346E+00  1.30056561E+00  1.53039831E-01  2.84343507E-02  4.68279854E+00
 -1.30016577E-01 -4.04839384E+00  2.35345642E+00 -1.30485230E-01 -4.05355354E+00
 -2.31587353E+00  2.62479540E-01 -2.84343507E-02 -4.68279854E+00 -1.30016577E-01
  4.04839384E+00 -2.35345642E+00 -1.30485230E-01  4.05355354E+00  2.31587353E+00
  2.62479540E-01
Force Field                                I                0
Int Atom Types                             I   N=          12
           0           0           0           0           0           0
           0           0           0           0           0           0
MM charges                                 R   N=          12
  0.00000000E+00  0.00000000E+00  0.00000000E+00  0.00000000E+00  0.00000000E+00
  0.00000000E+00  0.00000000E+00  0.00000000E+00  0.00000000E+00  0.00000000E+00
  0.00000000E+00  0.00000000E+00
Integer atomic weights                     I   N=          12
          12          12          12          12          12          12
           1           1           1           1           1           1
Real atomic weights                        R   N=          12
  1.20000000E+01  1.20000000E+01  1.20000000E+01  1.20000000E+01  1.20000000E+01
  1.20000000E+01  1.00782504E+00  1.00782504E+00  1.00782504E+00  1.00782504E+00
  1.00782504E+00  1.00782504E+00
Atom fragment info                         I   N=          12
           0           0           0           0           0           0
           0           0           0           0           0           0
Atom residue num                           I   N=          12
           0           0           0           0           0           0
           0           0           0           0           0           0
Nuclear spins                              I   N=          12
           0           0           0           0           0           0
           1           1           1           1           1           1
Nuclear ZEff                               R   N=          12
 -3.60000000E+00 -3.60000000E+00 -3.60000000E+00 -3.60000000E+00 -3.60000000E+00
 -3.60000000E+00 -1.00000000E+00 -1.00000000E+00 -1.00000000E+00 -1.00000000E+00
 -1.00000000E+00 -1.00000000E+00
Nuclear QMom                               R   N=          12
  0.00000000E+00  0.00000000E+00  0.00000000E+00  0.00000000E+00  0.00000000E+00
  0.00000000E+00  0.00000000E+00  0.00000000E+00  0.00000000E+00  0.00000000E+00
  0.00000000E+00  0.00000000E+00
Nuclear GFac                               R   N=          12
  0.00000000E+00  0.00000000E+00  0.00000000E+00  0.00000000E+00  0.00000000E+00
  0.00000000E+00  2.79284600E+00  2.79284600E+00  2.79284600E+00  2.79284600E+00
  2.79284600E+00  2.79284600E+00
MicOpt                                     I   N=          12
          -1          -1          -1          -1          -1          -1
          -1          -1          -1          -1          -1          -1
Number of contracted shells                I               66
Number of primitive shells                 I              120
Pure/Cartesian d shells                    I                0
Pure/Cartesian f shells                    I                0
Highest angular momentum                   I                2
Largest degree of contraction              I                6
Shell types                                I   N=          66
           0          -1          -1          -1          -1          -2
           0          -1          -1          -1          -1          -2
           0          -1          -1          -1          -1          -2
           0          -1          -1          -1          -1          -2
           0          -1          -1          -1          -1          -2
           0          -1          -1          -1          -1          -2
           0           0           0           0           1           0
           0           0           0           1           0           0
           0           0           1           0           0           0
           0           1           0           0           0           0
           1           0           0           0           0           1
Number of primitives per shell             I   N=          66
           6           3           1           1           1           1
           6           3           1           1           1           1
           6           3           1           1           1           1
           6           3           1           1           1           1
           6           3           1           1           1           1
           6           3           1           1           1           1
           3           1           1           1           1           3
           1           1           1           1           3           1
           1           1           1           3           1           1
           1           1           3           1           1           1
           1           3           1           1           1           1
Shell to atom map                          I   N=          66
           1           1           1           1           1           1
           2           2           2           2           2           2
           3           3           3           3           3           3
           4           4           4           4           4           4
           5           5           5           5           5           5
           6           6           6           6           6           6
           7           7           7           7           7           8
           8           8           8           8           9           9
           9           9           9          10          10          10
          10          10          11          11          11          11
          11          12          12          12          12          12
Primitive exponents                        R   N=         120
  4.56324000E+03  6.82024000E+02  1.54973000E+02  4.44553000E+01  1.30290000E+01
  1.82773000E+00  2.09642000E+01  4.80331000E+00  1.45933000E+00  4.83456000E-01
  1.45585000E-01  4.38000000E-02  6.26000000E-01  4.56324000E+03  6.82024000E+02
  1.54973000E+02  4.44553000E+01  1.30290000E+01  1.82773000E+00  2.09642000E+01
  4.80331000E+00  1.45933000E+00  4.83456000E-01  1.45585000E-01  4.38000000E-02
  6.26000000E-01  4.56324000E+03  6.82024000E+02  1.54973000E+02  4.44553000E+01
  1.30290000E+01  1.82773000E+00  2.09642000E+01  4.80331000E+00  1.45933000E+00
  4.83456000E-01  1.45585000E-01  4.38000000E-02  6.26000000E-01  4.56324000E+03
  6.82024000E+02  1.54973000E+02  4.44553000E+01  1.30290000E+01  1.82773000E+00
  2.09642000E+01  4.80331000E+00  1.45933000E+00  4.83456000E-01  1.45585000E-01
  4.38000000E-02  6.26000000E-01  4.56324000E+03  6.82024000E+02  1.54973000E+02
  4.44553000E+01  1.30290000E+01  1.82773000E+00  2.09642000E+01  4.80331000E+00
  1.45933000E+00  4.83456000E-01  1.45585000E-01  4.38000000E-02  6.26000000E-01
  4.56324000E+03  6.82024000E+02  1.54973000E+02  4.44553000E+01  1.30290000E+01
  1.82773000E+00  2.09642000E+01  4.80331000E+00  1.45933000E+00  4.83456000E-01
  1.45585000E-01  4.38000000E-02  6.26000000E-01  3.38650000E+01  5.09479000E+00
  1.15879000E+00  3.25840000E-01  1.02741000E-01  3.60000000E-02  7.50000000E-01
  3.38650000E+01  5.09479000E+00  1.15879000E+00  3.25840000E-01  1.02741000E-01
  3.60000000E-02  7.50000000E-01  3.38650000E+01  5.09479000E+00  1.15879000E+00
  3.25840000E-01  1.02741000E-01  3.60000000E-02  7.50000000E-01  3.38650000E+01
  5.09479000E+00  1.15879000E+00  3.25840000E-01  1.02741000E-01  3.60000000E-02
  7.50000000E-01  3.38650000E+01  5.09479000E+00  1.15879000E+00  3.25840000E-01
  1.02741000E-01  3.60000000E-02  7.50000000E-01  3.38650000E+01  5.09479000E+00
  1.15879000E+00  3.25840000E-01  1.02741000E-01  3.60000000E-02  7.50000000E-01
Contraction coefficients                   R   N=         120
  1.96665025E-03  1.52306019E-02  7.61269097E-02  2.60801033E-01  6.16462078E-01
  2.21006028E-01  1.14660081E-01  9.19999648E-01 -3.03068213E-03  1.00000000E+00
  1.00000000E+00  1.00000000E+00  1.00000000E+00  1.96665025E-03  1.52306019E-02
  7.61269097E-02  2.60801033E-01  6.16462078E-01  2.21006028E-01  1.14660081E-01
  9.19999648E-01 -3.03068213E-03  1.00000000E+00  1.00000000E+00  1.00000000E+00
  1.00000000E+00  1.96665025E-03  1.52306019E-02  7.61269097E-02  2.60801033E-01
  6.16462078E-01  2.21006028E-01  1.14660081E-01  9.19999648E-01 -3.03068213E-03
  1.00000000E+00  1.00000000E+00  1.00000000E+00  1.00000000E+00  1.96665025E-03
  1.52306019E-02  7.61269097E-02  2.60801033E-01  6.16462078E-01  2.21006028E-01
  1.14660081E-01  9.19999648E-01 -3.03068213E-03  1.00000000E+00  1.00000000E+00
  1.00000000E+00  1.00000000E+00  1.96665025E-03  1.52306019E-02  7.61269097E-02
  2.60801033E-01  6.16462078E-01  2.21006028E-01  1.14660081E-01  9.19999648E-01
 -3.03068213E-03  1.00000000E+00  1.00000000E+00  1.00000000E+00  1.00000000E+00
  1.96665025E-03  1.52306019E-02  7.61269097E-02  2.60801033E-01  6.16462078E-01
  2.21006028E-01  1.14660081E-01  9.19999648E-01 -3.03068213E-03  1.00000000E+00
  1.00000000E+00  1.00000000E+00  1.00000000E+00  2.54938145E-02  1.90373109E-01
  8.52161486E-01  1.00000000E+00  1.00000000E+00  1.00000000E+00  1.00000000E+00
  2.54938145E-02  1.90373109E-01  8.52161486E-01  1.00000000E+00  1.00000000E+00
  1.00000000E+00  1.00000000E+00  2.54938145E-02  1.90373109E-01  8.52161486E-01
  1.00000000E+00  1.00000000E+00  1.00000000E+00  1.00000000E+00  2.54938145E-02
  1.90373109E-01  8.52161486E-01  1.00000000E+00  1.00000000E+00  1.00000000E+00
  1.00000000E+00  2.54938145E-02  1.90373109E-01  8.52161486E-01  1.00000000E+00
  1.00000000E+00  1.00000000E+00  1.00000000E+00  2.54938145E-02  1.90373109E-01
  8.52161486E-01  1.00000000E+00  1.00000000E+00  1.00000000E+00  1.00000000E+00
P(S=P) Contraction coefficients            R   N=         120
  0.00000000E+00  0.00000000E+00  0.00000000E+00  0.00000000E+00  0.00000000E+00
  0.00000000E+00  4.02486927E-02  2.37593957E-01  8.15853851E-01  1.00000000E+00
  1.00000000E+00  1.00000000E+00  0.00000000E+00  0.00000000E+00  0.00000000E+00
  0.00000000E+00  0.00000000E+00  0.00000000E+00  0.00000000E+00  4.02486927E-02
  2.37593957E-01  8.15853851E-01  1.00000000E+00  1.00000000E+00  1.00000000E+00
  0.00000000E+00  0.00000000E+00  0.00000000E+00  0.00000000E+00  0.00000000E+00
  0.00000000E+00  0.00000000E+00  4.02486927E-02  2.37593957E-01  8.15853851E-01
  1.00000000E+00  1.00000000E+00  1.00000000E+00  0.00000000E+00  0.00000000E+00
  0.00000000E+00  0.00000000E+00  0.00000000E+00  0.00000000E+00  0.00000000E+00
  4.02486927E-02  2.37593957E-01  8.15853851E-01  1.00000000E+00  1.00000000E+00
  1.00000000E+00  0.00000000E+00  0.00000000E+00  0.00000000E+00  0.00000000E+00
  0.00000000E+00  0.00000000E+00  0.00000000E+00  4.02486927E-02  2.37593957E-01
  8.15853851E-01  1.00000000E+00  1.00000000E+00  1.00000000E+00  0.00000000E+00
  0.00000000E+00  0.00000000E+00  0.00000000E+00  0.00000000E+00  0.00000000E+00
  0.00000000E+00  4.02486927E-02  2.37593957E-01  8.15853851E-01  1.00000000E+00
  1.00000000E+00  1.00000000E+00  0.00000000E+00  0.00000000E+00  0.00000000E+00
  0.00000000E+00  0.00000000E+00  0.00000000E+00  0.00000000E+00  0.00000000E+00
  0.00000000E+00  0.00000000E+00  0.00000000E+00  0.00000000E+00  0.00000000E+00
  0.00000000E+00  0.00000000E+00  0.00000000E+00  0.00000000E+00  0.00000000E+00
  0.00000000E+00  0.00000000E+00  0.00000000E+00  0.00000000E+00  0.00000000E+00
  0.00000000E+00  0.00000000E+00  0.00000000E+00  0.00000000E+00  0.00000000E+00
  0.00000000E+00  0.00000000E+00  0.00000000E+00  0.00000000E+00  0.00000000E+00
  0.00000000E+00  0.00000000E+00  0.00000000E+00  0.00000000E+00  0.00000000E+00
  0.00000000E+00  0.00000000E+00  0.00000000E+00  0.00000000E+00  0.00000000E+00
Coordinates of each shell                  R   N=         198
  1.37516633E-02  2.63449052E+00 -7.66847265E-02  1.37516633E-02  2.63449052E+00
 -7.66847265E-02  1.37516633E-02  2.63449052E+00 -7.66847265E-02  1.37516633E-02
  2.63449052E+00 -7.66847265E-02  1.37516633E-02  2.63449052E+00 -7.66847265E-02
  1.37516633E-02  2.63449052E+00 -7.66847265E-02 -2.27635346E+00  1.32600304E+00
 -7.66847265E-02 -2.27635346E+00  1.32600304E+00 -7.66847265E-02 -2.27635346E+00
  1.32600304E+00 -7.66847265E-02 -2.27635346E+00  1.32600304E+00 -7.66847265E-02
 -2.27635346E+00  1.32600304E+00 -7.66847265E-02 -2.27635346E+00  1.32600304E+00
 -7.66847265E-02 -2.27635346E+00 -1.30056561E+00  1.53039831E-01 -2.27635346E+00
 -1.30056561E+00  1.53039831E-01 -2.27635346E+00 -1.30056561E+00  1.53039831E-01
 -2.27635346E+00 -1.30056561E+00  1.53039831E-01 -2.27635346E+00 -1.30056561E+00
  1.53039831E-01 -2.27635346E+00 -1.30056561E+00  1.53039831E-01 -1.37516633E-02
 -2.63449052E+00 -7.66847265E-02 -1.37516633E-02 -2.63449052E+00 -7.66847265E-02
 -1.37516633E-02 -2.63449052E+00 -7.66847265E-02 -1.37516633E-02 -2.63449052E+00
 -7.66847265E-02 -1.37516633E-02 -2.63449052E+00 -7.66847265E-02 -1.37516633E-02
 -2.63449052E+00 -7.66847265E-02  2.27635346E+00 -1.32600304E+00 -7.66847265E-02
  2.27635346E+00 -1.32600304E+00 -7.66847265E-02  2.27635346E+00 -1.32600304E+00
 -7.66847265E-02  2.27635346E+00 -1.32600304E+00 -7.66847265E-02  2.27635346E+00
 -1.32600304E+00 -7.66847265E-02  2.27635346E+00 -1.32600304E+00 -7.66847265E-02
  2.27635346E+00  1.30056561E+00  1.53039831E-01  2.27635346E+00  1.30056561E+00
  1.53039831E-01  2.27635346E+00  1.30056561E+00  1.53039831E-01  2.27635346E+00
  1.30056561E+00  1.53039831E-01  2.27635346E+00  1.30056561E+00  1.53039831E-01
  2.27635346E+00  1.30056561E+00  1.53039831E-01  2.84343507E-02  4.68279854E+00
 -1.30016577E-01  2.84343507E-02  4.68279854E+00 -1.30016577E-01  2.84343507E-02
  4.68279854E+00 -1.30016577E-01  2.84343507E-02  4.68279854E+00 -1.30016577E-01
  2.84343507E-02  4.68279854E+00 -1.30016577E-01 -4.04839384E+00  2.35345642E+00
 -1.30485230E-01 -4.04839384E+00  2.35345642E+00 -1.30485230E-01 -4.04839384E+00
  2.35345642E+00 -1.30485230E-01 -4.04839384E+00  2.35345642E+00 -1.30485230E-01
 -4.04839384E+00  2.35345642E+00 -1.30485230E-01 -4.05355354E+00 -2.31587353E+00
  2.62479540E-01 -4.05355354E+00 -2.31587353E+00  2.62479540E-01 -4.05355354E+00
 -2.31587353E+00  2.62479540E-01 -4.05355354E+00 -2.31587353E+00  2.62479540E-01
 -4.05355354E+00 -2.31587353E+00  2.62479540E-01 -2.84343507E-02 -4.68279854E+00
 -1.30016577E-01 -2.84343507E-02 -4.68279854E+00 -1.30016577E-01 -2.84343507E-02
 -4.68279854E+00 -1.30016577E-01 -2.84343507E-02 -4.68279854E+00 -1.30016577E-01
 -2.84343507E-02 -4.68279854E+00 -1.30016577E-01  4.04839384E+00 -2.35345642E+00
 -1.30485230E-01  4.04839384E+00 -2.35345642E+00 -1.30485230E-01  4.04839384E+00
 -2.35345642E+00 -1.30485230E-01  4.04839384E+00 -2.35345642E+00 -1.30485230E-01
  4.04839384E+00 -2.35345642E+00 -1.30485230E-01  4.05355354E+00  2.31587353E+00
  2.62479540E-01  4.05355354E+00  2.31587353E+00  2.62479540E-01  4.05355354E+00
  2.31587353E+00  2.62479540E-01  4.05355354E+00  2.31587353E+00  2.62479540E-01
  4.05355354E+00  2.31587353E+00  2.62479540E-01
Constraint Structure                       R   N=          36
  1.37516633E-02  2.63449052E+00 -7.66847265E-02 -2.27635346E+00  1.32600304E+00
 -7.66847265E-02 -2.27635346E+00 -1.30056561E+00  1.53039831E-01 -1.37516633E-02
 -2.63449052E+00 -7.66847265E-02  2.27635346E+00 -1.32600304E+00 -7.66847265E-02
  2.27635346E+00  1.30056561E+00  1.53039831E-01  2.84343507E-02  4.68279854E+00
 -1.30016577E-01 -4.04839384E+00  2.35345642E+00 -1.30485230E-01 -4.05355354E+00
 -2.31587353E+00  2.62479540E-01 -2.84343507E-02 -4.68279854E+00 -1.30016577E-01
  4.04839384E+00 -2.35345642E+00 -1.30485230E-01  4.05355354E+00  2.31587353E+00
  2.62479540E-01
Num ILSW                                   I              100
ILSW                                       I   N=         100
           0           0           0           0           2           0
           0           0           0           0           0          -1
           0           0           0           0           0           0
           0           0           0           0           0           0
           1           0           0           0           0           0
           0           0      100000           0          -1           0
           0           0           0           0           0           0
           0           0           0           1           0           0
           0           0           1           0           0           0
           0           0           4          40           0           0
           0           0           0           0           0           0
           0           0           0           0           0           0
           0           0           0           0           0           0
           0           0           0           0           0           0
           0           0           0           0           0           0
           0           0           0           0           0           0
           0           0           0           0
Num RLSW                                   I               40
RLSW                                       R   N=          40
  1.00000000E+00  1.00000000E+00  1.00000000E+00  1.00000000E+00  1.00000000E+00
  0.00000000E+00  0.00000000E+00  1.00000000E+00  0.00000000E+00  0.00000000E+00
  0.00000000E+00  0.00000000E+00  1.00000000E+00  0.00000000E+00  0.00000000E+00
  0.00000000E+00  0.00000000E+00  1.00000000E+00  0.00000000E+00  0.00000000E+00
  0.00000000E+00  0.00000000E+00  1.00000000E+00  0.00000000E+00  0.00000000E+00
  0.00000000E+00  0.00000000E+00  1.00000000E+00  0.00000000E+00  0.00000000E+00
  0.00000000E+00  0.00000000E+00  0.00000000E+00  0.00000000E+00  0.00000000E+00
  0.00000000E+00  0.00000000E+00  0.00000000E+00  1.00000000E+00  1.00000000E+00
MxBond                                     I                3
NBond                                      I   N=          12
           3           3           3           3           3           3
           1           1           1           1           1           1
IBond                                      I   N=          36
           2           6           7           1           3           8
           2           4           9           3           5          10
           4           6          11           1           5          12
           1           0           0           2           0           0
           3           0           0           4           0           0
           5           0           0           6           0           0
RBond                                      R   N=          36
  1.50000000E+00  1.50000000E+00  1.00000000E+00  1.50000000E+00  1.50000000E+00
  1.00000000E+00  1.50000000E+00  1.50000000E+00  1.00000000E+00  1.50000000E+00
  1.50000000E+00  1.00000000E+00  1.50000000E+00  1.50000000E+00  1.00000000E+00
  1.50000000E+00  1.50000000E+00  1.00000000E+00  1.00000000E+00  0.00000000E+00
  0.00000000E+00  1.00000000E+00  0.00000000E+00  0.00000000E+00  1.00000000E+00
  0.00000000E+00  0.00000000E+00  1.00000000E+00  0.00000000E+00  0.00000000E+00
  1.00000000E+00  0.00000000E+00  0.00000000E+00  1.00000000E+00  0.00000000E+00
  0.00000000E+00
Virial Ratio                               R      2.001293670794934E+00
SCF Energy                                 R     -2.307518353423813E+02
MP2 Energy                                 R     -2.315813196702715E+02
Total Energy                               R     -2.315813196702715E+02
Post-SCF wavefunction norm                 R      1.143868081448180E+00
RMS Density                                R      9.286336875663613E-09
External E-field                           R   N=          35
  0.00000000E+00  0.00000000E+00  0.00000000E+00  0.00000000E+00  0.00000000E+00
  0.00000000E+00  0.00000000E+00  0.00000000E+00  0.00000000E+00  0.00000000E+00
  0.00000000E+00  0.00000000E+00  0.00000000E+00  0.00000000E+00  0.00000000E+00
  0.00000000E+00  0.00000000E+00  0.00000000E+00  0.00000000E+00  0.00000000E+00
  0.00000000E+00  0.00000000E+00  0.00000000E+00  0.00000000E+00  0.00000000E+00
  0.00000000E+00  0.00000000E+00  0.00000000E+00  0.00000000E+00  0.00000000E+00
  0.00000000E+00  0.00000000E+00  0.00000000E+00  0.00000000E+00  0.00000000E+00
IOpCl                                      I                0
IROHF                                      I                0
Alpha Orbital Energies                     R   N=         174
 -1.12391842E+01 -1.12386983E+01 -1.12385258E+01 -1.12374737E+01 -1.12372792E+01
 -1.12367702E+01 -1.15251130E+00 -1.01607307E+00 -1.01593179E+00 -8.24589197E-01
 -8.24561091E-01 -7.10619578E-01 -6.44936621E-01 -6.19531113E-01 -5.89881633E-01
 -5.88766591E-01 -5.05115301E-01 -4.96478851E-01 -4.92492405E-01 -3.36113663E-01
 -3.35987281E-01  4.20415005E-02  4.90016701E-02  4.93172950E-02  6.62527674E-02
  6.89241108E-02  9.03355492E-02  1.05947689E-01  1.09339156E-01  1.24377388E-01
  1.47680202E-01  1.52221751E-01  1.60777423E-01  1.63184967E-01  1.81133397E-01
  1.82791074E-01  1.84682162E-01  1.85308629E-01  1.92331384E-01  2.01494195E-01
  2.11386561E-01  2.11922521E-01  2.16446137E-01  2.16975519E-01  2.22981367E-01
  2.28540887E-01  2.37875084E-01  2.43150767E-01  2.50102314E-01  2.64996041E-01
  2.84984193E-01  2.96896295E-01  3.12933036E-01  3.35466523E-01  3.61281084E-01
  4.03736748E-01  4.09861898E-01  4.10476282E-01  4.30109757E-01  4.32880600E-01
  4.78946363E-01  4.98628810E-01  5.06361411E-01  5.10095003E-01  6.04479427E-01
  6.08552231E-01  7.16102159E-01  7.20259383E-01  7.23631448E-01  7.28638966E-01
  7.38369219E-01  7.49748361E-01  7.52447721E-01  7.57736373E-01  7.63045863E-01
  7.99659521E-01  8.19479825E-01  8.20456881E-01  8.82265835E-01  9.05597569E-01
  9.29692989E-01  9.33112849E-01  9.40103104E-01  9.51879947E-01  9.69146494E-01
  9.76038002E-01  9.84519074E-01  1.01713586E+00  1.05786216E+00  1.09753608E+00
  1.11465443E+00  1.11800916E+00  1.12108340E+00  1.12305351E+00  1.21493069E+00
  1.26679071E+00  1.27753563E+00  1.31839429E+00  1.32600624E+00  1.39456706E+00
  1.40139141E+00  1.53139280E+00  1.55591263E+00  1.71293559E+00  1.78055064E+00
  1.78617584E+00  1.79702503E+00  1.82683366E+00  1.84514690E+00  1.84875617E+00
  1.90369007E+00  1.90871056E+00  1.92441137E+00  1.93346728E+00  1.99430017E+00
  2.05492743E+00  2.05793230E+00  2.10088728E+00  2.10260848E+00  2.12883728E+00
  2.18872670E+00  2.20529901E+00  2.21417213E+00  2.29132963E+00  2.29218245E+00
  2.30801636E+00  2.33558816E+00  2.34078811E+00  2.38361847E+00  2.38747787E+00
  2.63147830E+00  2.64489575E+00  2.71921517E+00  2.74252427E+00  2.74741145E+00
  2.81407016E+00  2.81836963E+00  2.90231168E+00  2.95294700E+00  2.95967266E+00
  2.98830629E+00  3.00587938E+00  3.01808023E+00  3.02602304E+00  3.04868871E+00
  3.05407426E+00  3.07193739E+00  3.18824831E+00  3.20901465E+00  3.22903490E+00
  3.29216179E+00  3.31205474E+00  3.31768546E+00  3.33719348E+00  3.48181685E+00
  3.54525187E+00  3.75901621E+00  3.77450764E+00  3.90013852E+00  3.90455998E+00
  3.91971129E+00  4.04680033E+00  4.39601523E+00  4.41140166E+00  4.48433705E+00
  4.56267220E+00  4.58494791E+00  5.23270866E+00  2.47485732E+01  2.51306719E+01
  2.51349458E+01  2.52539255E+01  2.52576665E+01  2.53449272E+01
Alpha MO coefficients                      R   N=       30276
  2.40499625E-01  1.99133700E-01 -1.19544086E-05 -2.74917852E-05  6.54244161E-06
  2.09856111E-03 -9.05132381E-06 -1.84763455E-04  1.55571918E-05 -3.93214236E-04
  1.05778050E-05  1.79816211E-05 -1.40927947E-05 -7.80390185E-05 -3.58135064E-05
 -2.60849464E-04  5.98513898E-05 -1.25857036E-04  6.90249519E-06 -8.28887030E-06
  6.38984913E-05  2.52289609E-06  2.40456531E-01  1.99097997E-01  2.97712235E-05
 -3.67398782E-06  6.53378287E-06  2.09824260E-03  1.63778390E-04 -8.59858808E-05
  1.55421648E-05 -3.93160237E-04 -2.08008339E-05 -7.12576300E-08 -1.40466095E-05
 -7.71877582E-05  2.43208570E-04 -1.02017857E-04  5.99735175E-05 -1.25812878E-04
  3.66057916E-06 -1.01558631E-05 -2.87342219E-05  5.71672090E-05  2.07162751E-01
  1.71519493E-01  3.39275575E-05  1.93725443E-05 -1.45162697E-05  1.86731111E-03
  1.54869682E-04  8.84477946E-05 -2.87270961E-05 -3.97879475E-04 -4.49558556E-06
 -2.58953021E-06  2.98061131E-05 -1.78176952E-04  7.60376342E-05  4.32909520E-05
 -1.10600575E-04 -9.44515904E-05 -1.13629783E-05 -6.49678613E-06 -3.25924887E-05
 -5.52951995E-05  2.40499625E-01  1.99133700E-01  1.19544086E-05  2.74917852E-05
  6.54244161E-06  2.09856111E-03  9.05132381E-06  1.84763455E-04  1.55571918E-05
 -3.93214236E-04 -1.05778050E-05 -1.79816211E-05 -1.40927947E-05 -7.80390185E-05
  3.58135064E-05  2.60849464E-04  5.98513898E-05 -1.25857036E-04 -6.90249519E-06
  8.28887030E-06  6.38984913E-05  2.52289609E-06  2.40456531E-01  1.99097997E-01
 -2.97712235E-05  3.67398782E-06  6.53378287E-06  2.09824260E-03 -1.63778390E-04
  8.59858808E-05  1.55421648E-05 -3.93160237E-04  2.08008339E-05  7.12576300E-08
 -1.40466095E-05 -7.71877582E-05 -2.43208570E-04  1.02017857E-04  5.99735175E-05
 -1.25812878E-04 -3.66057916E-06  1.01558631E-05 -2.87342219E-05  5.71672090E-05
  2.07162751E-01  1.71519493E-01 -3.39275575E-05 -1.93725443E-05 -1.45162697E-05
  1.86731111E-03 -1.54869682E-04 -8.84477946E-05 -2.87270961E-05 -3.97879475E-04
  4.49558556E-06  2.58953021E-06  2.98061131E-05 -1.78176952E-04 -7.60376342E-05
 -4.32909520E-05 -1.10600575E-04 -9.44515904E-05  1.13629783E-05  6.49678613E-06
 -3.25924887E-05 -5.52951995E-05  1.85214895E-04 -2.50362311E-05  2.62950451E-04
  1.28027509E-04 -1.79664294E-06 -3.01285601E-05  1.96361570E-06  1.85188438E-04
 -2.49948556E-05  2.63026221E-04  1.28297580E-04  2.68853196E-05 -1.37549854E-05
  1.97574908E-06  1.60070538E-04  1.19771186E-06  2.15608691E-04  4.94859878E-05
  2.89273714E-05  1.65280431E-05 -4.65020106E-06  1.85214895E-04 -2.50362311E-05
  2.62950451E-04  1.28027509E-04  1.79664294E-06  3.01285601E-05  1.96361570E-06
  1.85188438E-04 -2.49948556E-05  2.63026221E-04  1.28297580E-04 -2.68853196E-05
  1.37549854E-05  1.97574908E-06  1.60070538E-04  1.19771186E-06  2.15608691E-04
  4.94859878E-05 -2.89273714E-05 -1.65280431E-05 -4.65020106E-06  2.81740544E-01
  2.33312515E-01 -9.34057711E-05 -5.31987471E-06  3.31992163E-06  2.30501618E-03
 -7.31452188E-05 -1.21430968E-04  4.95951069E-06 -3.13608183E-04  9.35812005E-05
 -1.09277267E-05  9.58395167E-06 -6.78728448E-04 -3.88165261E-04 -9.71782124E-04
 -2.42016427E-05 -1.67276557E-04  1.11512444E-05 -6.25931952E-06  7.45471341E-05
  5.20845047E-05  2.81496843E-01  2.33110683E-01  5.21362447E-05  7.78958335E-05
  3.30069778E-06  2.30306049E-03  1.41762629E-04  1.59883672E-06  4.91398000E-06
 -3.13187278E-04 -3.80587218E-05 -8.64971176E-05  9.69380586E-06 -6.69262442E-04
  1.03598928E-03 -1.58500038E-04 -2.40811781E-05 -1.67103600E-04 -2.45954278E-07
 -1.27791833E-05  9.58471032E-06  9.05428233E-05 -1.81528116E-04 -1.50319310E-04
 -9.22556220E-05  1.61432223E-04  7.75050932E-09 -1.52441262E-06 -7.29574115E-05
  1.27587391E-04  5.57911197E-09  1.20878306E-07  9.46117755E-05 -1.65823781E-04
 -1.60958492E-08 -3.07661703E-06 -3.84507328E-04  6.69625218E-04  9.30194937E-08
  9.19470047E-08 -1.71505211E-06  3.00171211E-06 -9.13184987E-05  5.39340445E-05
 -2.81740544E-01 -2.33312515E-01 -9.34057711E-05 -5.31987471E-06 -3.31992163E-06
 -2.30501618E-03 -7.31452188E-05 -1.21430968E-04 -4.95951069E-06  3.13608183E-04
  9.35812005E-05 -1.09277267E-05 -9.58395167E-06  6.78728448E-04 -3.88165261E-04
 -9.71782124E-04  2.42016427E-05  1.67276557E-04  1.11512444E-05 -6.25931952E-06
 -7.45471341E-05 -5.20845047E-05 -2.81496843E-01 -2.33110683E-01  5.21362447E-05
  7.78958335E-05 -3.30069778E-06 -2.30306049E-03  1.41762629E-04  1.59883672E-06
 -4.91398000E-06  3.13187278E-04 -3.80587218E-05 -8.64971176E-05 -9.69380586E-06
  6.69262442E-04  1.03598928E-03 -1.58500038E-04  2.40811781E-05  1.67103600E-04
 -2.45954278E-07 -1.27791833E-05 -9.58471032E-06 -9.05428233E-05  1.81528116E-04
  1.50319310E-04 -9.22556220E-05  1.61432223E-04 -7.75050932E-09  1.52441262E-06
 -7.29574115E-05  1.27587391E-04 -5.57911197E-09 -1.20878306E-07  9.46117755E-05