C7H7+                                                                   
SP        RMP2-FC                                                     6-311++G(d,p)       
Number of atoms                            I               14
Info1-9                                    I   N=           9
          28          23           0           0           0         110
           1           2           1
Charge                                     I                1
Multiplicity                               I                1
Number of electrons                        I               48
Number of alpha electrons                  I               24
Number of beta electrons                   I               24
Number of basis functions                  I              203
Number of independent functions            I              203
Number of point charges in /Mol/           I                0
Number of translation vectors              I                0
Atomic numbers                             I   N=          14
           6           6           6           6           6           6
           6           1           1           1           1           1
           1           1
Nuclear charges                            R   N=          14
  6.00000000E+00  6.00000000E+00  6.00000000E+00  6.00000000E+00  6.00000000E+00
  6.00000000E+00  6.00000000E+00  1.00000000E+00  1.00000000E+00  1.00000000E+00
  1.00000000E+00  1.00000000E+00  1.00000000E+00  1.00000000E+00
Current cartesian coordinates              R   N=          42
  2.37670932E+00  1.89534619E+00 -4.93038066E-32  3.38813179E-21  3.03986814E+00
 -2.46519033E-32  2.96370106E+00 -6.76431715E-01 -4.93038066E-32  1.31895549E+00
 -2.73882381E+00  0.00000000E+00 -1.31897936E+00 -2.73883864E+00  9.86076132E-32
 -2.96368196E+00 -6.76440462E-01  1.97215226E-31 -2.37669835E+00  1.89532137E+00
  9.86076132E-32 -2.20908478E+00 -4.58710729E+00  1.47911420E-31 -4.96366349E+00
 -1.13292261E+00  9.86076132E-32 -3.98058224E+00  3.17435459E+00  1.47911420E-31
 -3.23164768E-05  5.09130570E+00 -4.93038066E-32  3.98059018E+00  3.17437854E+00
 -1.97215226E-31  4.96370094E+00 -1.13290650E+00 -2.95822839E-31  2.20903445E+00
 -4.58710892E+00 -4.93038066E-32
Force Field                                I                0
Int Atom Types                             I   N=          14
           0           0           0           0           0           0
           0           0           0           0           0           0
           0           0
MM charges                                 R   N=          14
  0.00000000E+00  0.00000000E+00  0.00000000E+00  0.00000000E+00  0.00000000E+00
  0.00000000E+00  0.00000000E+00  0.00000000E+00  0.00000000E+00  0.00000000E+00
  0.00000000E+00  0.00000000E+00  0.00000000E+00  0.00000000E+00
Integer atomic weights                     I   N=          14
          12          12          12          12          12          12
          12           1           1           1           1           1
           1           1
Real atomic weights                        R   N=          14
  1.20000000E+01  1.20000000E+01  1.20000000E+01  1.20000000E+01  1.20000000E+01
  1.20000000E+01  1.20000000E+01  1.00782504E+00  1.00782504E+00  1.00782504E+00
  1.00782504E+00  1.00782504E+00  1.00782504E+00  1.00782504E+00
Atom fragment info                         I   N=          14
           0           0           0           0           0           0
           0           0           0           0           0           0
           0           0
Atom residue num                           I   N=          14
           0           0           0           0           0           0
           0           0           0           0           0           0
           0           0
Nuclear spins                              I   N=          14
           0           0           0           0           0           0
           0           1           1           1           1           1
           1           1
Nuclear ZEff                               R   N=          14
 -3.60000000E+00 -3.60000000E+00 -3.60000000E+00 -3.60000000E+00 -3.60000000E+00
 -3.60000000E+00 -3.60000000E+00 -1.00000000E+00 -1.00000000E+00 -1.00000000E+00
 -1.00000000E+00 -1.00000000E+00 -1.00000000E+00 -1.00000000E+00
Nuclear QMom                               R   N=          14
  0.00000000E+00  0.00000000E+00  0.00000000E+00  0.00000000E+00  0.00000000E+00
  0.00000000E+00  0.00000000E+00  0.00000000E+00  0.00000000E+00  0.00000000E+00
  0.00000000E+00  0.00000000E+00  0.00000000E+00  0.00000000E+00
Nuclear GFac                               R   N=          14
  0.00000000E+00  0.00000000E+00  0.00000000E+00  0.00000000E+00  0.00000000E+00
  0.00000000E+00  0.00000000E+00  2.79284600E+00  2.79284600E+00  2.79284600E+00
  2.79284600E+00  2.79284600E+00  2.79284600E+00  2.79284600E+00
MicOpt                                     I   N=          14
          -1          -1          -1          -1          -1          -1
          -1          -1          -1          -1          -1          -1
          -1          -1
Number of contracted shells                I               77
Number of primitive shells                 I              140
Pure/Cartesian d shells                    I                0
Pure/Cartesian f shells                    I                0
Highest angular momentum                   I                2
Largest degree of contraction              I                6
Shell types                                I   N=          77
           0          -1          -1          -1          -1          -2
           0          -1          -1          -1          -1          -2
           0          -1          -1          -1          -1          -2
           0          -1          -1          -1          -1          -2
           0          -1          -1          -1          -1          -2
           0          -1          -1          -1          -1          -2
           0          -1          -1          -1          -1          -2
           0           0           0           0           1           0
           0           0           0           1           0           0
           0           0           1           0           0           0
           0           1           0           0           0           0
           1           0           0           0           0           1
           0           0           0           0           1
Number of primitives per shell             I   N=          77
           6           3           1           1           1           1
           6           3           1           1           1           1
           6           3           1           1           1           1
           6           3           1           1           1           1
           6           3           1           1           1           1
           6           3           1           1           1           1
           6           3           1           1           1           1
           3           1           1           1           1           3
           1           1           1           1           3           1
           1           1           1           3           1           1
           1           1           3           1           1           1
           1           3           1           1           1           1
           3           1           1           1           1
Shell to atom map                          I   N=          77
           1           1           1           1           1           1
           2           2           2           2           2           2
           3           3           3           3           3           3
           4           4           4           4           4           4
           5           5           5           5           5           5
           6           6           6           6           6           6
           7           7           7           7           7           7
           8           8           8           8           8           9
           9           9           9           9          10          10
          10          10          10          11          11          11
          11          11          12          12          12          12
          12          13          13          13          13          13
          14          14          14          14          14
Primitive exponents                        R   N=         140
  4.56324000E+03  6.82024000E+02  1.54973000E+02  4.44553000E+01  1.30290000E+01
  1.82773000E+00  2.09642000E+01  4.80331000E+00  1.45933000E+00  4.83456000E-01
  1.45585000E-01  4.38000000E-02  6.26000000E-01  4.56324000E+03  6.82024000E+02
  1.54973000E+02  4.44553000E+01  1.30290000E+01  1.82773000E+00  2.09642000E+01
  4.80331000E+00  1.45933000E+00  4.83456000E-01  1.45585000E-01  4.38000000E-02
  6.26000000E-01  4.56324000E+03  6.82024000E+02  1.54973000E+02  4.44553000E+01
  1.30290000E+01  1.82773000E+00  2.09642000E+01  4.80331000E+00  1.45933000E+00
  4.83456000E-01  1.45585000E-01  4.38000000E-02  6.26000000E-01  4.56324000E+03
  6.82024000E+02  1.54973000E+02  4.44553000E+01  1.30290000E+01  1.82773000E+00
  2.09642000E+01  4.80331000E+00  1.45933000E+00  4.83456000E-01  1.45585000E-01
  4.38000000E-02  6.26000000E-01  4.56324000E+03  6.82024000E+02  1.54973000E+02
  4.44553000E+01  1.30290000E+01  1.82773000E+00  2.09642000E+01  4.80331000E+00
  1.45933000E+00  4.83456000E-01  1.45585000E-01  4.38000000E-02  6.26000000E-01
  4.56324000E+03  6.82024000E+02  1.54973000E+02  4.44553000E+01  1.30290000E+01
  1.82773000E+00  2.09642000E+01  4.80331000E+00  1.45933000E+00  4.83456000E-01
  1.45585000E-01  4.38000000E-02  6.26000000E-01  4.56324000E+03  6.82024000E+02
  1.54973000E+02  4.44553000E+01  1.30290000E+01  1.82773000E+00  2.09642000E+01
  4.80331000E+00  1.45933000E+00  4.83456000E-01  1.45585000E-01  4.38000000E-02
  6.26000000E-01  3.38650000E+01  5.09479000E+00  1.15879000E+00  3.25840000E-01
  1.02741000E-01  3.60000000E-02  7.50000000E-01  3.38650000E+01  5.09479000E+00
  1.15879000E+00  3.25840000E-01  1.02741000E-01  3.60000000E-02  7.50000000E-01
  3.38650000E+01  5.09479000E+00  1.15879000E+00  3.25840000E-01  1.02741000E-01
  3.60000000E-02  7.50000000E-01  3.38650000E+01  5.09479000E+00  1.15879000E+00
  3.25840000E-01  1.02741000E-01  3.60000000E-02  7.50000000E-01  3.38650000E+01
  5.09479000E+00  1.15879000E+00  3.25840000E-01  1.02741000E-01  3.60000000E-02
  7.50000000E-01  3.38650000E+01  5.09479000E+00  1.15879000E+00  3.25840000E-01
  1.02741000E-01  3.60000000E-02  7.50000000E-01  3.38650000E+01  5.09479000E+00
  1.15879000E+00  3.25840000E-01  1.02741000E-01  3.60000000E-02  7.50000000E-01
Contraction coefficients                   R   N=         140
  1.96665025E-03  1.52306019E-02  7.61269097E-02  2.60801033E-01  6.16462078E-01
  2.21006028E-01  1.14660081E-01  9.19999648E-01 -3.03068213E-03  1.00000000E+00
  1.00000000E+00  1.00000000E+00  1.00000000E+00  1.96665025E-03  1.52306019E-02
  7.61269097E-02  2.60801033E-01  6.16462078E-01  2.21006028E-01  1.14660081E-01
  9.19999648E-01 -3.03068213E-03  1.00000000E+00  1.00000000E+00  1.00000000E+00
  1.00000000E+00  1.96665025E-03  1.52306019E-02  7.61269097E-02  2.60801033E-01
  6.16462078E-01  2.21006028E-01  1.14660081E-01  9.19999648E-01 -3.03068213E-03
  1.00000000E+00  1.00000000E+00  1.00000000E+00  1.00000000E+00  1.96665025E-03
  1.52306019E-02  7.61269097E-02  2.60801033E-01  6.16462078E-01  2.21006028E-01
  1.14660081E-01  9.19999648E-01 -3.03068213E-03  1.00000000E+00  1.00000000E+00
  1.00000000E+00  1.00000000E+00  1.96665025E-03  1.52306019E-02  7.61269097E-02
  2.60801033E-01  6.16462078E-01  2.21006028E-01  1.14660081E-01  9.19999648E-01
 -3.03068213E-03  1.00000000E+00  1.00000000E+00  1.00000000E+00  1.00000000E+00
  1.96665025E-03  1.52306019E-02  7.61269097E-02  2.60801033E-01  6.16462078E-01
  2.21006028E-01  1.14660081E-01  9.19999648E-01 -3.03068213E-03  1.00000000E+00
  1.00000000E+00  1.00000000E+00  1.00000000E+00  1.96665025E-03  1.52306019E-02
  7.61269097E-02  2.60801033E-01  6.16462078E-01  2.21006028E-01  1.14660081E-01
  9.19999648E-01 -3.03068213E-03  1.00000000E+00  1.00000000E+00  1.00000000E+00
  1.00000000E+00  2.54938145E-02  1.90373109E-01  8.52161486E-01  1.00000000E+00
  1.00000000E+00  1.00000000E+00  1.00000000E+00  2.54938145E-02  1.90373109E-01
  8.52161486E-01  1.00000000E+00  1.00000000E+00  1.00000000E+00  1.00000000E+00
  2.54938145E-02  1.90373109E-01  8.52161486E-01  1.00000000E+00  1.00000000E+00
  1.00000000E+00  1.00000000E+00  2.54938145E-02  1.90373109E-01  8.52161486E-01
  1.00000000E+00  1.00000000E+00  1.00000000E+00  1.00000000E+00  2.54938145E-02
  1.90373109E-01  8.52161486E-01  1.00000000E+00  1.00000000E+00  1.00000000E+00
  1.00000000E+00  2.54938145E-02  1.90373109E-01  8.52161486E-01  1.00000000E+00
  1.00000000E+00  1.00000000E+00  1.00000000E+00  2.54938145E-02  1.90373109E-01
  8.52161486E-01  1.00000000E+00  1.00000000E+00  1.00000000E+00  1.00000000E+00
P(S=P) Contraction coefficients            R   N=         140
  0.00000000E+00  0.00000000E+00  0.00000000E+00  0.00000000E+00  0.00000000E+00
  0.00000000E+00  4.02486927E-02  2.37593957E-01  8.15853851E-01  1.00000000E+00
  1.00000000E+00  1.00000000E+00  0.00000000E+00  0.00000000E+00  0.00000000E+00
  0.00000000E+00  0.00000000E+00  0.00000000E+00  0.00000000E+00  4.02486927E-02
  2.37593957E-01  8.15853851E-01  1.00000000E+00  1.00000000E+00  1.00000000E+00
  0.00000000E+00  0.00000000E+00  0.00000000E+00  0.00000000E+00  0.00000000E+00
  0.00000000E+00  0.00000000E+00  4.02486927E-02  2.37593957E-01  8.15853851E-01
  1.00000000E+00  1.00000000E+00  1.00000000E+00  0.00000000E+00  0.00000000E+00
  0.00000000E+00  0.00000000E+00  0.00000000E+00  0.00000000E+00  0.00000000E+00
  4.02486927E-02  2.37593957E-01  8.15853851E-01  1.00000000E+00  1.00000000E+00
  1.00000000E+00  0.00000000E+00  0.00000000E+00  0.00000000E+00  0.00000000E+00
  0.00000000E+00  0.00000000E+00  0.00000000E+00  4.02486927E-02  2.37593957E-01
  8.15853851E-01  1.00000000E+00  1.00000000E+00  1.00000000E+00  0.00000000E+00
  0.00000000E+00  0.00000000E+00  0.00000000E+00  0.00000000E+00  0.00000000E+00
  0.00000000E+00  4.02486927E-02  2.37593957E-01  8.15853851E-01  1.00000000E+00
  1.00000000E+00  1.00000000E+00  0.00000000E+00  0.00000000E+00  0.00000000E+00
  0.00000000E+00  0.00000000E+00  0.00000000E+00  0.00000000E+00  4.02486927E-02
  2.37593957E-01  8.15853851E-01  1.00000000E+00  1.00000000E+00  1.00000000E+00
  0.00000000E+00  0.00000000E+00  0.00000000E+00  0.00000000E+00  0.00000000E+00
  0.00000000E+00  0.00000000E+00  0.00000000E+00  0.00000000E+00  0.00000000E+00
  0.00000000E+00  0.00000000E+00  0.00000000E+00  0.00000000E+00  0.00000000E+00
  0.00000000E+00  0.00000000E+00  0.00000000E+00  0.00000000E+00  0.00000000E+00
  0.00000000E+00  0.00000000E+00  0.00000000E+00  0.00000000E+00  0.00000000E+00
  0.00000000E+00  0.00000000E+00  0.00000000E+00  0.00000000E+00  0.00000000E+00
  0.00000000E+00  0.00000000E+00  0.00000000E+00  0.00000000E+00  0.00000000E+00
  0.00000000E+00  0.00000000E+00  0.00000000E+00  0.00000000E+00  0.00000000E+00
  0.00000000E+00  0.00000000E+00  0.00000000E+00  0.00000000E+00  0.00000000E+00
  0.00000000E+00  0.00000000E+00  0.00000000E+00  0.00000000E+00  0.00000000E+00
Coordinates of each shell                  R   N=         231
  2.37670932E+00  1.89534619E+00 -7.02713811E-32  2.37670932E+00  1.89534619E+00
 -7.02713811E-32  2.37670932E+00  1.89534619E+00 -7.02713811E-32  2.37670932E+00
  1.89534619E+00 -7.02713811E-32  2.37670932E+00  1.89534619E+00 -7.02713811E-32
  2.37670932E+00  1.89534619E+00 -7.02713811E-32  2.57486847E-21  3.03986814E+00
 -1.87346339E-32  2.57486847E-21  3.03986814E+00 -1.87346339E-32  2.57486847E-21
  3.03986814E+00 -1.87346339E-32  2.57486847E-21  3.03986814E+00 -1.87346339E-32
  2.57486847E-21  3.03986814E+00 -1.87346339E-32  2.57486847E-21  3.03986814E+00
 -1.87346339E-32  2.96370106E+00 -6.76431715E-01 -6.88920395E-32  2.96370106E+00
 -6.76431715E-01 -6.88920395E-32  2.96370106E+00 -6.76431715E-01 -6.88920395E-32
  2.96370106E+00 -6.76431715E-01 -6.88920395E-32  2.96370106E+00 -6.76431715E-01
 -6.88920395E-32  2.96370106E+00 -6.76431715E-01 -6.88920395E-32  1.31895549E+00
 -2.73882381E+00 -1.56354583E-32  1.31895549E+00 -2.73882381E+00 -1.56354583E-32
  1.31895549E+00 -2.73882381E+00 -1.56354583E-32  1.31895549E+00 -2.73882381E+00
 -1.56354583E-32  1.31895549E+00 -2.73882381E+00 -1.56354583E-32  1.31895549E+00
 -2.73882381E+00 -1.56354583E-32 -1.31897936E+00 -2.73883864E+00  4.93947478E-32
 -1.31897936E+00 -2.73883864E+00  4.93947478E-32 -1.31897936E+00 -2.73883864E+00
  4.93947478E-32 -1.31897936E+00 -2.73883864E+00  4.93947478E-32 -1.31897936E+00
 -2.73883864E+00  4.93947478E-32 -1.31897936E+00 -2.73883864E+00  4.93947478E-32
 -2.96368196E+00 -6.76440462E-01  7.72292873E-32 -2.96368196E+00 -6.76440462E-01
  7.72292873E-32 -2.96368196E+00 -6.76440462E-01  7.72292873E-32 -2.96368196E+00
 -6.76440462E-01  7.72292873E-32 -2.96368196E+00 -6.76440462E-01  7.72292873E-32
 -2.96368196E+00 -6.76440462E-01  7.72292873E-32 -2.37669835E+00  1.89532137E+00
  4.69093180E-32 -2.37669835E+00  1.89532137E+00  4.69093180E-32 -2.37669835E+00
  1.89532137E+00  4.69093180E-32 -2.37669835E+00  1.89532137E+00  4.69093180E-32
 -2.37669835E+00  1.89532137E+00  4.69093180E-32 -2.37669835E+00  1.89532137E+00
  4.69093180E-32 -2.20908478E+00 -4.58710729E+00  8.27283756E-32 -2.20908478E+00
 -4.58710729E+00  8.27283756E-32 -2.20908478E+00 -4.58710729E+00  8.27283756E-32
 -2.20908478E+00 -4.58710729E+00  8.27283756E-32 -2.20908478E+00 -4.58710729E+00
  8.27283756E-32 -4.96366349E+00 -1.13292261E+00  1.29345927E-31 -4.96366349E+00
 -1.13292261E+00  1.29345927E-31 -4.96366349E+00 -1.13292261E+00  1.29345927E-31
 -4.96366349E+00 -1.13292261E+00  1.29345927E-31 -4.96366349E+00 -1.13292261E+00
  1.29345927E-31 -3.98058224E+00  3.17435459E+00  7.85654579E-32 -3.98058224E+00
  3.17435459E+00  7.85654579E-32 -3.98058224E+00  3.17435459E+00  7.85654579E-32
 -3.98058224E+00  3.17435459E+00  7.85654579E-32 -3.98058224E+00  3.17435459E+00
  7.85654579E-32 -3.23164768E-05  5.09130570E+00 -3.13767973E-32 -3.23164768E-05
  5.09130570E+00 -3.13767973E-32 -3.23164768E-05  5.09130570E+00 -3.13767973E-32
 -3.23164768E-05  5.09130570E+00 -3.13767973E-32 -3.23164768E-05  5.09130570E+00
 -3.13767973E-32  3.98059018E+00  3.17437854E+00 -1.17692742E-31  3.98059018E+00
  3.17437854E+00 -1.17692742E-31  3.98059018E+00  3.17437854E+00 -1.17692742E-31
  3.98059018E+00  3.17437854E+00 -1.17692742E-31  3.98059018E+00  3.17437854E+00
 -1.17692742E-31  4.96370094E+00 -1.13290650E+00 -1.15382600E-31  4.96370094E+00
 -1.13290650E+00 -1.15382600E-31  4.96370094E+00 -1.13290650E+00 -1.15382600E-31
  4.96370094E+00 -1.13290650E+00 -1.15382600E-31  4.96370094E+00 -1.13290650E+00
 -1.15382600E-31  2.20903445E+00 -4.58710892E+00 -2.61866623E-32  2.20903445E+00
 -4.58710892E+00 -2.61866623E-32  2.20903445E+00 -4.58710892E+00 -2.61866623E-32
  2.20903445E+00 -4.58710892E+00 -2.61866623E-32  2.20903445E+00 -4.58710892E+00
 -2.61866623E-32
Constraint Structure                       R   N=          42
  2.37670932E+00  1.89534619E+00 -7.02713811E-32  2.57486847E-21  3.03986814E+00
 -1.87346339E-32  2.96370106E+00 -6.76431715E-01 -6.88920395E-32  1.31895549E+00
 -2.73882381E+00 -1.56354583E-32 -1.31897936E+00 -2.73883864E+00  4.93947478E-32
 -2.96368196E+00 -6.76440462E-01  7.72292873E-32 -2.37669835E+00  1.89532137E+00
  4.69093180E-32 -2.20908478E+00 -4.58710729E+00  8.27283756E-32 -4.96366349E+00
 -1.13292261E+00  1.29345927E-31 -3.98058224E+00  3.17435459E+00  7.85654579E-32
 -3.23164768E-05  5.09130570E+00 -3.13767973E-32  3.98059018E+00  3.17437854E+00
 -1.17692742E-31  4.96370094E+00 -1.13290650E+00 -1.15382600E-31  2.20903445E+00
 -4.58710892E+00 -2.61866623E-32
Num ILSW                                   I              100
ILSW                                       I   N=         100
           0           0           0           0           2           0
           0           0           0           0           0          -1
           0           0           0           0           0           0
           0           0           0           0           0           0
           1           0           0           0           0           0
           0           0      100000           0          -1           0
           0           0           0           0           0           0
           0           0           0           1           0           0
           0           0           1           0           0           0
           0           0           4          40           0           0
           0           0           0           0           0           0
           0           0           0           0           0           0
           0           0           0           0           0           0
           0           0           0           0           0           0
           0           0           0           0           0           0
           0           0           0           0           0           0
           0           0           0           0
Num RLSW                                   I               40
RLSW                                       R   N=          40
  1.00000000E+00  1.00000000E+00  1.00000000E+00  1.00000000E+00  1.00000000E+00
  0.00000000E+00  0.00000000E+00  1.00000000E+00  0.00000000E+00  0.00000000E+00
  0.00000000E+00  0.00000000E+00  1.00000000E+00  0.00000000E+00  0.00000000E+00
  0.00000000E+00  0.00000000E+00  1.00000000E+00  0.00000000E+00  0.00000000E+00
  0.00000000E+00  0.00000000E+00  1.00000000E+00  0.00000000E+00  0.00000000E+00
  0.00000000E+00  0.00000000E+00  1.00000000E+00  0.00000000E+00  0.00000000E+00
  0.00000000E+00  0.00000000E+00  0.00000000E+00  0.00000000E+00  0.00000000E+00
  0.00000000E+00  0.00000000E+00  0.00000000E+00  1.00000000E+00  1.00000000E+00
MxBond                                     I                3
NBond                                      I   N=          14
           3           3           3           3           3           3
           3           1           1           1           1           1
           1           1
IBond                                      I   N=          42
           2           3          12           1           7          11
           1           4          13           3           5          14
           4           6           8           5           7           9
           2           6          10           5           0           0
           6           0           0           7           0           0
           2           0           0           1           0           0
           3           0           0           4           0           0
RBond                                      R   N=          42
  1.50000000E+00  1.50000000E+00  1.00000000E+00  1.50000000E+00  1.50000000E+00
  1.00000000E+00  1.50000000E+00  1.50000000E+00  1.00000000E+00  1.50000000E+00
  1.50000000E+00  1.00000000E+00  1.50000000E+00  1.50000000E+00  1.00000000E+00
  1.50000000E+00  1.50000000E+00  1.00000000E+00  1.50000000E+00  1.50000000E+00
  1.00000000E+00  1.00000000E+00  0.00000000E+00  0.00000000E+00  1.00000000E+00
  0.00000000E+00  0.00000000E+00  1.00000000E+00  0.00000000E+00  0.00000000E+00
  1.00000000E+00  0.00000000E+00  0.00000000E+00  1.00000000E+00  0.00000000E+00
  0.00000000E+00  1.00000000E+00  0.00000000E+00  0.00000000E+00  1.00000000E+00
  0.00000000E+00  0.00000000E+00
Virial Ratio                               R      2.001281611826967E+00
SCF Energy                                 R     -2.689518663475854E+02
MP2 Energy                                 R     -2.698939915629855E+02
Total Energy                               R     -2.698939915629855E+02
Post-SCF wavefunction norm                 R      1.164719656627811E+00
RMS Density                                R      8.308454163144663E-09
External E-field                           R   N=          35
  0.00000000E+00  0.00000000E+00  0.00000000E+00  0.00000000E+00  0.00000000E+00
  0.00000000E+00  0.00000000E+00  0.00000000E+00  0.00000000E+00  0.00000000E+00
  0.00000000E+00  0.00000000E+00  0.00000000E+00  0.00000000E+00  0.00000000E+00
  0.00000000E+00  0.00000000E+00  0.00000000E+00  0.00000000E+00  0.00000000E+00
  0.00000000E+00  0.00000000E+00  0.00000000E+00  0.00000000E+00  0.00000000E+00
  0.00000000E+00  0.00000000E+00  0.00000000E+00  0.00000000E+00  0.00000000E+00
  0.00000000E+00  0.00000000E+00  0.00000000E+00  0.00000000E+00  0.00000000E+00
IOpCl                                      I                0
IROHF                                      I                0
Alpha Orbital Energies                     R   N=         203
 -1.14667464E+01 -1.14663198E+01 -1.14663179E+01 -1.14652967E+01 -1.14652962E+01
 -1.14644783E+01 -1.14644764E+01 -1.35489651E+00 -1.26559410E+00 -1.26558745E+00
 -1.10589922E+00 -1.10589870E+00 -9.32236376E-01 -9.32233611E-01 -9.16819965E-01
 -8.27384334E-01 -8.27377388E-01 -7.59932121E-01 -7.59931140E-01 -7.05364832E-01
 -7.05360910E-01 -6.96379047E-01 -5.68360350E-01 -5.68355189E-01 -1.56275665E-01
 -1.56274507E-01 -7.96298425E-02 -6.29278441E-02 -6.29275135E-02 -3.96424625E-02
 -3.96424077E-02 -1.64548974E-02 -9.02701174E-03 -9.02666691E-03 -8.41808469E-03
  1.17546705E-02  1.17551453E-02  5.26253378E-02  5.26258673E-02  5.30085150E-02
  5.43732057E-02  5.43738126E-02  5.94867227E-02  5.94868573E-02  6.28740376E-02
  6.28752571E-02  6.87268919E-02  6.87275868E-02  7.10999542E-02  7.11002418E-02
  1.10482620E-01  1.10483767E-01  1.19550493E-01  1.19550531E-01  1.41294207E-01
  1.41294422E-01  1.46876246E-01  1.52176103E-01  1.52178097E-01  1.79378215E-01
  1.79378546E-01  1.97731086E-01  1.97731486E-01  2.38069828E-01  2.38070100E-01
  2.38118708E-01  2.53530491E-01  2.53532100E-01  2.91198768E-01  2.91201794E-01
  3.05478057E-01  3.05478544E-01  3.86396647E-01  3.86397064E-01  4.00652128E-01
  4.00652907E-01  4.23687693E-01  5.03646434E-01  5.37247552E-01  5.45566373E-01
  5.45570490E-01  5.51840046E-01  5.51842687E-01  5.66681642E-01  5.66683255E-01
  5.67895971E-01  5.67897518E-01  6.18456285E-01  6.18456485E-01  6.52161998E-01
  6.86518777E-01  6.86520017E-01  7.24996622E-01  7.24998410E-01  7.61866729E-01
  7.61869778E-01  7.74373350E-01  8.11881484E-01  8.11885878E-01  8.34739556E-01
  8.34739653E-01  8.54024945E-01  8.54025909E-01  9.00001804E-01  9.00003150E-01
  9.38544281E-01  9.38548984E-01  9.70299052E-01  9.82571652E-01  1.02525059E+00
  1.02525371E+00  1.06899862E+00  1.06900247E+00  1.07469486E+00  1.07469650E+00
  1.15511016E+00  1.15511469E+00  1.20222886E+00  1.20223326E+00  1.42857250E+00
  1.50530995E+00  1.50531435E+00  1.55536422E+00  1.55536575E+00  1.58659753E+00
  1.60191206E+00  1.60191530E+00  1.69082758E+00  1.69083276E+00  1.73917103E+00
  1.73918767E+00  1.75766485E+00  1.75767001E+00  1.80851226E+00  1.82252428E+00
  1.82252823E+00  1.83254606E+00  1.83254975E+00  2.00776668E+00  2.00777230E+00
  2.01470458E+00  2.01470782E+00  2.02020742E+00  2.02021743E+00  2.05206459E+00
  2.07655060E+00  2.07655402E+00  2.13653176E+00  2.13653510E+00  2.15560146E+00
  2.15560643E+00  2.32704486E+00  2.32705046E+00  2.54635451E+00  2.54992693E+00
  2.54993320E+00  2.57049291E+00  2.57049991E+00  2.57369130E+00  2.74021791E+00
  2.74022292E+00  2.77317330E+00  2.78683542E+00  2.78683858E+00  2.81176883E+00
  2.81177352E+00  2.82060240E+00  2.84054760E+00  2.84054886E+00  2.85657504E+00
  2.85657641E+00  2.86547723E+00  2.86547749E+00  2.97978946E+00  2.97979009E+00
  3.04821393E+00  3.04821553E+00  3.12979215E+00  3.16956125E+00  3.16956422E+00
  3.44007567E+00  3.44007818E+00  3.52979204E+00  3.52979867E+00  3.62455922E+00
  3.62456319E+00  3.63399367E+00  3.71500477E+00  3.71501371E+00  4.15178314E+00
  4.15178526E+00  4.21925079E+00  4.21925749E+00  4.44450853E+00  4.44452080E+00
  5.10943034E+00  2.45039462E+01  2.48497481E+01  2.48497682E+01  2.49919942E+01
  2.49920024E+01  2.51306837E+01  2.51307084E+01
Alpha MO coefficients                      R   N=       41209
  2.13529086E-01  1.76801390E-01 -9.27055586E-05 -7.40185749E-05  0.00000000E+00
  1.83046676E-03 -7.97731125E-05 -6.38024623E-05  0.00000000E+00 -3.41238426E-04
 -1.79189530E-05 -1.35421059E-05  0.00000000E+00  1.13924472E-05 -7.11603646E-05
 -6.18321378E-05  0.00000000E+00 -1.34869626E-04  0.00000000E+00  0.00000000E+00
 -1.50475156E-05 -6.54627639E-05  2.13243778E-01  1.76565193E-01  4.08937777E-07
 -1.18405865E-04  0.00000000E+00  1.82780522E-03  3.81767671E-07 -1.01981303E-04
  0.00000000E+00 -3.41045264E-04 -1.27077240E-06 -2.24027691E-05  0.00000000E+00
  2.19737167E-05  8.23822453E-06 -9.41513797E-05  0.00000000E+00 -1.34740983E-04
  0.00000000E+00  0.00000000E+00  6.71032879E-05 -3.38779937E-07  2.13502965E-01
  1.76779742E-01 -1.15653117E-04  2.64492345E-05  0.00000000E+00  1.83034190E-03
 -9.95941956E-05  2.28429713E-05  0.00000000E+00 -3.41206394E-04 -2.19880807E-05
  4.59090414E-06  0.00000000E+00  1.00614553E-05 -9.09044456E-05  2.36618297E-05
  0.00000000E+00 -1.34832050E-04  0.00000000E+00  0.00000000E+00 -6.05448654E-05
  2.90741735E-05  2.13335846E-01  1.76641424E-01 -5.11092456E-05  1.06871143E-04
  0.00000000E+00  1.82859999E-03 -4.39616353E-05  9.20563323E-05  0.00000000E+00
 -3.41091621E-04 -1.08076312E-05  1.96917768E-05  0.00000000E+00  1.97020135E-05
 -3.38503538E-05  8.83585787E-05  0.00000000E+00 -1.34796601E-04  0.00000000E+00
  0.00000000E+00  4.16291056E-05  5.26664737E-05  2.12514041E-01  1.75960907E-01
  5.17519819E-05  1.06099457E-04  0.00000000E+00  1.82190760E-03  4.45892719E-05
  9.15981300E-05  0.00000000E+00 -3.40735540E-04  8.55851552E-06  2.04183408E-05