CH-                                                                     
SP        RMP2-FC                                                     6-311++G(d,p)       
Number of atoms                            I               10
Info1-9                                    I   N=           9
          17          17           0           0           0         110
           1           2           1
Full Title                                 C   N=           1
CH-         
Route                                      C   N=           3
#P MP2/6-311++G** nosymm Density=MP2
Charge                                     I               -1
Multiplicity                               I                1
Number of electrons                        I               36
Number of alpha electrons                  I               18
Number of beta electrons                   I               18
Number of basis functions                  I              145
Number of independent functions            I              145
Number of point charges in /Mol/           I                0
Number of translation vectors              I                0
Atomic numbers                             I   N=          10
           6           1           6           1           6           1
           6           1           6           1
Nuclear charges                            R   N=          10
  6.00000000E+00  1.00000000E+00  6.00000000E+00  1.00000000E+00  6.00000000E+00
  1.00000000E+00  6.00000000E+00  1.00000000E+00  6.00000000E+00  1.00000000E+00
Current cartesian coordinates              R   N=          30
  2.16345123E+00  7.02980121E-01  0.00000000E+00  4.11455959E+00  1.33687745E+00
  0.00000000E+00  1.33706260E+00 -1.84042136E+00  0.00000000E+00  2.54302353E+00
 -3.50002621E+00  0.00000000E+00 -2.16345123E+00  7.02980121E-01  0.00000000E+00
 -4.11455959E+00  1.33687745E+00  0.00000000E+00 -1.33706260E+00 -1.84042136E+00
  0.00000000E+00 -2.54302353E+00 -3.50002621E+00  0.00000000E+00  0.00000000E+00
  2.27487521E+00  0.00000000E+00  0.00000000E+00  4.32634126E+00  0.00000000E+00
Number of symbols in /Mol/                 I                0
Force Field                                I                0
Atom Types                                 C   N=          10
                                                            
                                                            
Int Atom Types                             I   N=          10
           0           0           0           0           0           0
           0           0           0           0
MM charges                                 R   N=          10
  0.00000000E+00  0.00000000E+00  0.00000000E+00  0.00000000E+00  0.00000000E+00
  0.00000000E+00  0.00000000E+00  0.00000000E+00  0.00000000E+00  0.00000000E+00
Integer atomic weights                     I   N=          10
          12           1          12           1          12           1
          12           1          12           1
Real atomic weights                        R   N=          10
  1.20000000E+01  1.00782504E+00  1.20000000E+01  1.00782504E+00  1.20000000E+01
  1.00782504E+00  1.20000000E+01  1.00782504E+00  1.20000000E+01  1.00782504E+00
Atom fragment info                         I   N=          10
           0           0           0           0           0           0
           0           0           0           0
Atom residue num                           I   N=          10
           0           0           0           0           0           0
           0           0           0           0
Nuclear spins                              I   N=          10
           0           1           0           1           0           1
           0           1           0           1
Nuclear ZEff                               R   N=          10
 -3.60000000E+00 -1.00000000E+00 -3.60000000E+00 -1.00000000E+00 -3.60000000E+00
 -1.00000000E+00 -3.60000000E+00 -1.00000000E+00 -3.60000000E+00 -1.00000000E+00
Nuclear ZNuc                               R   N=          10
  6.00000000E+00  1.00000000E+00  6.00000000E+00  1.00000000E+00  6.00000000E+00
  1.00000000E+00  6.00000000E+00  1.00000000E+00  6.00000000E+00  1.00000000E+00
Nuclear QMom                               R   N=          10
  0.00000000E+00  0.00000000E+00  0.00000000E+00  0.00000000E+00  0.00000000E+00
  0.00000000E+00  0.00000000E+00  0.00000000E+00  0.00000000E+00  0.00000000E+00
Nuclear GFac                               R   N=          10
  0.00000000E+00  2.79284600E+00  0.00000000E+00  2.79284600E+00  0.00000000E+00
  2.79284600E+00  0.00000000E+00  2.79284600E+00  0.00000000E+00  2.79284600E+00
MicOpt                                     I   N=          10
          -1          -1          -1          -1          -1          -1
          -1          -1          -1          -1
Number of residues                         I                0
Number of secondary structures             I                0
Number of contracted shells                I               55
Number of primitive shells                 I              100
Pure/Cartesian d shells                    I                0
Pure/Cartesian f shells                    I                0
Highest angular momentum                   I                2
Largest degree of contraction              I                6
Shell types                                I   N=          55
           0          -1          -1          -1          -1          -2
           0           0           0           0           1           0
          -1          -1          -1          -1          -2           0
           0           0           0           1           0          -1
          -1          -1          -1          -2           0           0
           0           0           1           0          -1          -1
          -1          -1          -2           0           0           0
           0           1           0          -1          -1          -1
          -1          -2           0           0           0           0
           1
Number of primitives per shell             I   N=          55
           6           3           1           1           1           1
           3           1           1           1           1           6
           3           1           1           1           1           3
           1           1           1           1           6           3
           1           1           1           1           3           1
           1           1           1           6           3           1
           1           1           1           3           1           1
           1           1           6           3           1           1
           1           1           3           1           1           1
           1
Shell to atom map                          I   N=          55
           1           1           1           1           1           1
           2           2           2           2           2           3
           3           3           3           3           3           4
           4           4           4           4           5           5
           5           5           5           5           6           6
           6           6           6           7           7           7
           7           7           7           8           8           8
           8           8           9           9           9           9
           9           9          10          10          10          10
          10
Primitive exponents                        R   N=         100
  4.56324000E+03  6.82024000E+02  1.54973000E+02  4.44553000E+01  1.30290000E+01
  1.82773000E+00  2.09642000E+01  4.80331000E+00  1.45933000E+00  4.83456000E-01
  1.45585000E-01  4.38000000E-02  6.26000000E-01  3.38650000E+01  5.09479000E+00
  1.15879000E+00  3.25840000E-01  1.02741000E-01  3.60000000E-02  7.50000000E-01
  4.56324000E+03  6.82024000E+02  1.54973000E+02  4.44553000E+01  1.30290000E+01
  1.82773000E+00  2.09642000E+01  4.80331000E+00  1.45933000E+00  4.83456000E-01
  1.45585000E-01  4.38000000E-02  6.26000000E-01  3.38650000E+01  5.09479000E+00
  1.15879000E+00  3.25840000E-01  1.02741000E-01  3.60000000E-02  7.50000000E-01
  4.56324000E+03  6.82024000E+02  1.54973000E+02  4.44553000E+01  1.30290000E+01
  1.82773000E+00  2.09642000E+01  4.80331000E+00  1.45933000E+00  4.83456000E-01
  1.45585000E-01  4.38000000E-02  6.26000000E-01  3.38650000E+01  5.09479000E+00
  1.15879000E+00  3.25840000E-01  1.02741000E-01  3.60000000E-02  7.50000000E-01
  4.56324000E+03  6.82024000E+02  1.54973000E+02  4.44553000E+01  1.30290000E+01
  1.82773000E+00  2.09642000E+01  4.80331000E+00  1.45933000E+00  4.83456000E-01
  1.45585000E-01  4.38000000E-02  6.26000000E-01  3.38650000E+01  5.09479000E+00
  1.15879000E+00  3.25840000E-01  1.02741000E-01  3.60000000E-02  7.50000000E-01
  4.56324000E+03  6.82024000E+02  1.54973000E+02  4.44553000E+01  1.30290000E+01
  1.82773000E+00  2.09642000E+01  4.80331000E+00  1.45933000E+00  4.83456000E-01
  1.45585000E-01  4.38000000E-02  6.26000000E-01  3.38650000E+01  5.09479000E+00
  1.15879000E+00  3.25840000E-01  1.02741000E-01  3.60000000E-02  7.50000000E-01
Contraction coefficients                   R   N=         100
  1.96665025E-03  1.52306019E-02  7.61269097E-02  2.60801033E-01  6.16462078E-01
  2.21006028E-01  1.14660081E-01  9.19999648E-01 -3.03068213E-03  1.00000000E+00
  1.00000000E+00  1.00000000E+00  1.00000000E+00  2.54938145E-02  1.90373109E-01
  8.52161486E-01  1.00000000E+00  1.00000000E+00  1.00000000E+00  1.00000000E+00
  1.96665025E-03  1.52306019E-02  7.61269097E-02  2.60801033E-01  6.16462078E-01
  2.21006028E-01  1.14660081E-01  9.19999648E-01 -3.03068213E-03  1.00000000E+00
  1.00000000E+00  1.00000000E+00  1.00000000E+00  2.54938145E-02  1.90373109E-01
  8.52161486E-01  1.00000000E+00  1.00000000E+00  1.00000000E+00  1.00000000E+00
  1.96665025E-03  1.52306019E-02  7.61269097E-02  2.60801033E-01  6.16462078E-01
  2.21006028E-01  1.14660081E-01  9.19999648E-01 -3.03068213E-03  1.00000000E+00
  1.00000000E+00  1.00000000E+00  1.00000000E+00  2.54938145E-02  1.90373109E-01
  8.52161486E-01  1.00000000E+00  1.00000000E+00  1.00000000E+00  1.00000000E+00
  1.96665025E-03  1.52306019E-02  7.61269097E-02  2.60801033E-01  6.16462078E-01
  2.21006028E-01  1.14660081E-01  9.19999648E-01 -3.03068213E-03  1.00000000E+00
  1.00000000E+00  1.00000000E+00  1.00000000E+00  2.54938145E-02  1.90373109E-01
  8.52161486E-01  1.00000000E+00  1.00000000E+00  1.00000000E+00  1.00000000E+00
  1.96665025E-03  1.52306019E-02  7.61269097E-02  2.60801033E-01  6.16462078E-01
  2.21006028E-01  1.14660081E-01  9.19999648E-01 -3.03068213E-03  1.00000000E+00
  1.00000000E+00  1.00000000E+00  1.00000000E+00  2.54938145E-02  1.90373109E-01
  8.52161486E-01  1.00000000E+00  1.00000000E+00  1.00000000E+00  1.00000000E+00
P(S=P) Contraction coefficients            R   N=         100
  0.00000000E+00  0.00000000E+00  0.00000000E+00  0.00000000E+00  0.00000000E+00
  0.00000000E+00  4.02486927E-02  2.37593957E-01  8.15853851E-01  1.00000000E+00
  1.00000000E+00  1.00000000E+00  0.00000000E+00  0.00000000E+00  0.00000000E+00
  0.00000000E+00  0.00000000E+00  0.00000000E+00  0.00000000E+00  0.00000000E+00
  0.00000000E+00  0.00000000E+00  0.00000000E+00  0.00000000E+00  0.00000000E+00
  0.00000000E+00  4.02486927E-02  2.37593957E-01  8.15853851E-01  1.00000000E+00
  1.00000000E+00  1.00000000E+00  0.00000000E+00  0.00000000E+00  0.00000000E+00
  0.00000000E+00  0.00000000E+00  0.00000000E+00  0.00000000E+00  0.00000000E+00
  0.00000000E+00  0.00000000E+00  0.00000000E+00  0.00000000E+00  0.00000000E+00
  0.00000000E+00  4.02486927E-02  2.37593957E-01  8.15853851E-01  1.00000000E+00
  1.00000000E+00  1.00000000E+00  0.00000000E+00  0.00000000E+00  0.00000000E+00
  0.00000000E+00  0.00000000E+00  0.00000000E+00  0.00000000E+00  0.00000000E+00
  0.00000000E+00  0.00000000E+00  0.00000000E+00  0.00000000E+00  0.00000000E+00
  0.00000000E+00  4.02486927E-02  2.37593957E-01  8.15853851E-01  1.00000000E+00
  1.00000000E+00  1.00000000E+00  0.00000000E+00  0.00000000E+00  0.00000000E+00
  0.00000000E+00  0.00000000E+00  0.00000000E+00  0.00000000E+00  0.00000000E+00
  0.00000000E+00  0.00000000E+00  0.00000000E+00  0.00000000E+00  0.00000000E+00
  0.00000000E+00  4.02486927E-02  2.37593957E-01  8.15853851E-01  1.00000000E+00
  1.00000000E+00  1.00000000E+00  0.00000000E+00  0.00000000E+00  0.00000000E+00
  0.00000000E+00  0.00000000E+00  0.00000000E+00  0.00000000E+00  0.00000000E+00
Coordinates of each shell                  R   N=         165
  2.16345123E+00  7.02980121E-01  0.00000000E+00  2.16345123E+00  7.02980121E-01
  0.00000000E+00  2.16345123E+00  7.02980121E-01  0.00000000E+00  2.16345123E+00
  7.02980121E-01  0.00000000E+00  2.16345123E+00  7.02980121E-01  0.00000000E+00
  2.16345123E+00  7.02980121E-01  0.00000000E+00  4.11455959E+00  1.33687745E+00
  0.00000000E+00  4.11455959E+00  1.33687745E+00  0.00000000E+00  4.11455959E+00
  1.33687745E+00  0.00000000E+00  4.11455959E+00  1.33687745E+00  0.00000000E+00
  4.11455959E+00  1.33687745E+00  0.00000000E+00  1.33706260E+00 -1.84042136E+00
  0.00000000E+00  1.33706260E+00 -1.84042136E+00  0.00000000E+00  1.33706260E+00
 -1.84042136E+00  0.00000000E+00  1.33706260E+00 -1.84042136E+00  0.00000000E+00
  1.33706260E+00 -1.84042136E+00  0.00000000E+00  1.33706260E+00 -1.84042136E+00
  0.00000000E+00  2.54302353E+00 -3.50002621E+00  0.00000000E+00  2.54302353E+00
 -3.50002621E+00  0.00000000E+00  2.54302353E+00 -3.50002621E+00  0.00000000E+00
  2.54302353E+00 -3.50002621E+00  0.00000000E+00  2.54302353E+00 -3.50002621E+00
  0.00000000E+00 -2.16345123E+00  7.02980121E-01  0.00000000E+00 -2.16345123E+00
  7.02980121E-01  0.00000000E+00 -2.16345123E+00  7.02980121E-01  0.00000000E+00
 -2.16345123E+00  7.02980121E-01  0.00000000E+00 -2.16345123E+00  7.02980121E-01
  0.00000000E+00 -2.16345123E+00  7.02980121E-01  0.00000000E+00 -4.11455959E+00
  1.33687745E+00  0.00000000E+00 -4.11455959E+00  1.33687745E+00  0.00000000E+00
 -4.11455959E+00  1.33687745E+00  0.00000000E+00 -4.11455959E+00  1.33687745E+00
  0.00000000E+00 -4.11455959E+00  1.33687745E+00  0.00000000E+00 -1.33706260E+00
 -1.84042136E+00  0.00000000E+00 -1.33706260E+00 -1.84042136E+00  0.00000000E+00
 -1.33706260E+00 -1.84042136E+00  0.00000000E+00 -1.33706260E+00 -1.84042136E+00
  0.00000000E+00 -1.33706260E+00 -1.84042136E+00  0.00000000E+00 -1.33706260E+00
 -1.84042136E+00  0.00000000E+00 -2.54302353E+00 -3.50002621E+00  0.00000000E+00
 -2.54302353E+00 -3.50002621E+00  0.00000000E+00 -2.54302353E+00 -3.50002621E+00
  0.00000000E+00 -2.54302353E+00 -3.50002621E+00  0.00000000E+00 -2.54302353E+00
 -3.50002621E+00  0.00000000E+00  0.00000000E+00  2.27487521E+00  0.00000000E+00
  0.00000000E+00  2.27487521E+00  0.00000000E+00  0.00000000E+00  2.27487521E+00
  0.00000000E+00  0.00000000E+00  2.27487521E+00  0.00000000E+00  0.00000000E+00
  2.27487521E+00  0.00000000E+00  0.00000000E+00  2.27487521E+00  0.00000000E+00
  0.00000000E+00  4.32634126E+00  0.00000000E+00  0.00000000E+00  4.32634126E+00
  0.00000000E+00  0.00000000E+00  4.32634126E+00  0.00000000E+00  0.00000000E+00
  4.32634126E+00  0.00000000E+00  0.00000000E+00  4.32634126E+00  0.00000000E+00
Num ILSW                                   I              100
ILSW                                       I   N=         100
           0           0           0           0           2           0
           0           0           0           0           0          -1
           5           0           0           0           0           0
           0           0           0           0           0           0
           1           1           0           0           0           0
           0           0      100000           0          -1           0
           0           0           0           0           0           0
           0           0           0           1           0           0
           0 -2000000000           1           0           0           0
           0           0           4          52           0           0
           0           0           0           0           0           0
           0           0           0          10           0           1
           0           0           0           0           0           0
           0           0           0           0           0           0
           0           0           0           0           0           0
           0           0           0           0           0           0
           0           0           0           0
Num RLSW                                   I               52
RLSW                                       R   N=          52
  1.00000000E+00  1.00000000E+00  1.00000000E+00  1.00000000E+00  1.00000000E+00
  0.00000000E+00  0.00000000E+00  1.00000000E+00  0.00000000E+00  0.00000000E+00
  0.00000000E+00  0.00000000E+00  1.00000000E+00  0.00000000E+00  0.00000000E+00
  0.00000000E+00  0.00000000E+00  1.00000000E+00  0.00000000E+00  0.00000000E+00
  0.00000000E+00  0.00000000E+00  1.00000000E+00  0.00000000E+00  0.00000000E+00
  0.00000000E+00  0.00000000E+00  1.00000000E+00  0.00000000E+00  0.00000000E+00
  0.00000000E+00  0.00000000E+00  1.00000000E+00  0.00000000E+00  0.00000000E+00
  0.00000000E+00  0.00000000E+00  0.00000000E+00  1.00000000E+00  1.00000000E+00
  0.00000000E+00  1.00000000E+00  0.00000000E+00  0.00000000E+00  0.00000000E+00
  0.00000000E+00  0.00000000E+00  0.00000000E+00  0.00000000E+00  0.00000000E+00
  0.00000000E+00  0.00000000E+00
MxBond                                     I                3
NBond                                      I   N=          10
           3           1           3           1           3           1
           3           1           3           1
IBond                                      I   N=          30
           2           3           9           1           0           0
           1           4           7           3           0           0
           6           7           9           5           0           0
           3           5           8           7           0           0
           1           5          10           9           0           0
RBond                                      R   N=          30
  1.00000000E+00  1.50000000E+00  1.50000000E+00  1.00000000E+00  0.00000000E+00
  0.00000000E+00  1.50000000E+00  1.00000000E+00  1.50000000E+00  1.00000000E+00
  0.00000000E+00  0.00000000E+00  1.00000000E+00  1.50000000E+00  1.50000000E+00
  1.00000000E+00  0.00000000E+00  0.00000000E+00  1.50000000E+00  1.50000000E+00
  1.00000000E+00  1.00000000E+00  0.00000000E+00  0.00000000E+00  1.50000000E+00
  1.50000000E+00  1.00000000E+00  1.00000000E+00  0.00000000E+00  0.00000000E+00
Virial Ratio                               R      2.001273804065605E+00
SCF Energy                                 R     -1.922481090179503E+02
MP2 Energy                                 R     -1.929711634156593E+02
Total Energy                               R     -1.929711634156593E+02
Post-SCF wavefunction norm                 R      1.128957478409275E+00
RMS Density                                R      1.411129473058928E-09
Job Status                                 I                1
Nuclear derivative order                   I                0
External E-field                           R   N=          35
  0.00000000E+00  0.00000000E+00  0.00000000E+00  0.00000000E+00  0.00000000E+00
  0.00000000E+00  0.00000000E+00  0.00000000E+00  0.00000000E+00  0.00000000E+00
  0.00000000E+00  0.00000000E+00  0.00000000E+00  0.00000000E+00  0.00000000E+00
  0.00000000E+00  0.00000000E+00  0.00000000E+00  0.00000000E+00  0.00000000E+00
  0.00000000E+00  0.00000000E+00  0.00000000E+00  0.00000000E+00  0.00000000E+00
  0.00000000E+00  0.00000000E+00  0.00000000E+00  0.00000000E+00  0.00000000E+00
  0.00000000E+00  0.00000000E+00  0.00000000E+00  0.00000000E+00  0.00000000E+00
IOpCl                                      I                0
IROHF                                      I                0
Alpha Orbital Energies                     R   N=         145
 -1.10058742E+01 -1.10051733E+01 -1.10051712E+01 -1.10039382E+01 -1.10039378E+01
 -9.28282725E-01 -7.28202446E-01 -7.28176536E-01 -5.19378853E-01 -5.19377801E-01
 -4.84968058E-01 -3.28287979E-01 -3.28251003E-01 -3.04307857E-01 -3.04300379E-01
 -2.80481005E-01 -7.11977004E-02 -7.11728308E-02  1.56448983E-01  1.56449620E-01
  1.58061561E-01  1.71051072E-01  1.71051531E-01  2.82770797E-01  2.82819953E-01
  2.82821219E-01  3.00658428E-01  3.00658666E-01  3.03291237E-01  3.03294983E-01
  3.16973510E-01  3.16974472E-01  3.31545506E-01  3.33242810E-01  3.33243771E-01
  3.36473399E-01  3.36474561E-01  3.42952670E-01  3.79896415E-01  3.92139419E-01
  3.92140836E-01  4.32976774E-01  4.32977128E-01  4.62201780E-01  4.62204213E-01
  5.14672848E-01  5.81338526E-01  5.81340436E-01  5.90898647E-01  5.90907171E-01
  6.36892359E-01  6.36907768E-01  7.45951400E-01  7.45955156E-01  7.82589811E-01
  8.36440880E-01  9.15545154E-01  9.15551137E-01  9.34466895E-01  9.34468465E-01
  9.43873460E-01  9.63908385E-01  9.63918690E-01  1.03704521E+00  1.04226192E+00
  1.04226268E+00  1.12458870E+00  1.12462169E+00  1.16288325E+00  1.19061903E+00
  1.19061987E+00  1.19459820E+00  1.19460586E+00  1.26251285E+00  1.27749989E+00
  1.27750458E+00  1.31577117E+00  1.31577379E+00  1.37943995E+00  1.44400097E+00
  1.44400544E+00  1.54392620E+00  1.54392918E+00  1.58832865E+00  1.58834871E+00
  1.69355845E+00  2.00266277E+00  2.00266286E+00  2.02237208E+00  2.02241837E+00
  2.02573734E+00  2.02573975E+00  2.02722652E+00  2.17407565E+00  2.18812695E+00
  2.18815460E+00  2.27957251E+00  2.27958762E+00  2.35203939E+00  2.35205290E+00
  2.38181715E+00  2.38187398E+00  2.41805258E+00  2.46693017E+00  2.46694716E+00
  2.53534453E+00  2.53534540E+00  2.72553442E+00  2.79189381E+00  2.79189666E+00
  2.88431918E+00  2.88432487E+00  2.90948159E+00  3.03082446E+00  3.03083814E+00
  3.15525496E+00  3.19427581E+00  3.19431993E+00  3.25777936E+00  3.25780844E+00
  3.26884220E+00  3.26885256E+00  3.29793822E+00  3.32891585E+00  3.41343924E+00
  3.41344131E+00  3.62538866E+00  3.62539187E+00  3.80824686E+00  3.80825858E+00
  3.93969918E+00  3.93970635E+00  4.04703242E+00  4.04710299E+00  4.10785094E+00
  4.69980156E+00  4.69981198E+00  4.70491747E+00  4.70494598E+00  5.34234083E+00
  2.50073676E+01  2.53534712E+01  2.53536011E+01  2.54972225E+01  2.54972431E+01
Alpha MO coefficients                      R   N=       21025
  2.51617553E-01  2.08325186E-01  5.70242682E-05  1.85053912E-05 -1.00355308E-15
  2.17640926E-03 -2.37585607E-04 -7.72179812E-05  1.15756244E-15 -3.79692716E-04
  5.59251974E-05  1.82266416E-05  5.44607576E-16 -1.56134532E-04 -2.54906297E-04
 -8.29021895E-05 -4.11487707E-16 -8.39487348E-05 -9.19095097E-16 -2.03604959E-16
 -4.22877019E-05 -3.07068318E-05  1.88805659E-04 -2.26853031E-05  2.34945546E-04
  1.48556502E-04 -3.28796485E-05 -1.06893989E-05  2.52356665E-16  2.52075963E-01
  2.08704872E-01  3.53617704E-05 -4.89041106E-05  1.26382625E-16  2.17969067E-03
 -1.47184466E-04  2.02323545E-04 -4.41826573E-16 -3.80333381E-04  3.48975858E-05
 -4.80200083E-05 -4.97136942E-16 -1.54996873E-04 -1.58147998E-04  2.17573004E-04
 -4.54356580E-16 -8.43000720E-05  6.51739125E-16 -1.11872346E-15  1.61716815E-05
  4.95384190E-05  1.89122318E-04 -2.29211996E-05  2.35132261E-04  1.48997633E-04
 -2.03195464E-05  2.79311189E-05 -5.48628694E-16  2.51617553E-01  2.08325186E-01
 -5.70242682E-05  1.85053912E-05 -6.70101709E-16  2.17640926E-03  2.37585607E-04
 -7.72179812E-05  1.03532632E-15 -3.79692716E-04 -5.59251974E-05  1.82266417E-05
 -8.52399631E-16 -1.56134538E-04  2.54906296E-04 -8.29021889E-05 -5.93454219E-16
 -8.39487348E-05 -3.92520222E-16 -4.16896152E-16 -4.22877019E-05  3.07068318E-05
  1.88805659E-04 -2.26853031E-05  2.34945546E-04  1.48556501E-04  3.28796485E-05
 -1.06893989E-05 -2.57527145E-16  2.52075963E-01  2.08704872E-01 -3.53617704E-05
 -4.89041106E-05  2.60574440E-16  2.17969067E-03  1.47184466E-04  2.02323545E-04
 -3.63064400E-17 -3.80333381E-04 -3.48975858E-05 -4.80200082E-05  2.43227735E-16
 -1.54996863E-04  1.58148000E-04  2.17573007E-04  1.42139873E-15 -8.43000720E-05
  8.25453758E-16  7.18568419E-16  1.61716815E-05 -4.95384190E-05  1.89122318E-04
 -2.29211996E-05  2.35132261E-04  1.48997635E-04  2.03195465E-05  2.79311189E-05
 -1.35605989E-16  2.51984835E-01  2.08629444E-01 -3.75340157E-15  6.04171582E-05
 -3.42742096E-16  2.17882099E-03  1.33874257E-14 -2.50189005E-04 -2.67478163E-17
 -3.80377324E-04 -4.22606279E-15  5.96115618E-05  2.08597923E-16 -1.55195814E-04
 -2.69712727E-13 -2.68154733E-04  3.21189380E-16 -8.43310008E-05 -3.26863605E-16
  3.54164198E-16  5.19915741E-05  3.81386022E-15  1.89052071E-04 -2.29427576E-05
  2.34856979E-04  1.48588669E-04 -2.50742153E-15 -3.45107302E-05 -3.65293117E-16
  1.10038567E-01  9.11252645E-02 -3.37101267E-06  1.88461394E-04  1.00838882E-16
  8.47043351E-04 -1.24517114E-04  1.57133309E-04 -1.08565191E-15 -9.71442983E-05
  5.04534745E-05 -8.59859803E-05  3.25023781E-15  2.72505621E-04 -4.26709212E-04
  2.46567080E-05 -8.83728971E-15 -5.56569189E-05 -3.58694288E-17  4.80108436E-16
  4.18578064E-05 -6.48004344E-05  7.94557861E-05 -3.84628169E-05  1.14987253E-04
  1.94284873E-04 -7.94679672E-06  1.95358856E-05 -1.20429306E-16 -2.88057978E-01
 -2.38547044E-01  5.19593537E-06  1.82255549E-04 -7.34637675E-16 -2.21673233E-03
  2.01502555E-04 -7.98001274E-05  9.88962152E-16  2.53862568E-04 -8.17565320E-05
  1.01593202E-05 -2.56810928E-15 -7.15797308E-04  6.90675306E-04 -7.87160367E-04
  4.65535415E-15  1.45930564E-04 -1.33319290E-16  3.21924250E-16 -4.86747707E-05
  4.47031716E-06 -2.07965979E-04  1.00781477E-04 -3.00760967E-04 -5.08675171E-04
  1.28376405E-05  4.48886665E-06  7.41539313E-16  1.10038566E-01  9.11252640E-02
  3.37101301E-06  1.88461394E-04  2.95840763E-16  8.47043346E-04  1.24517113E-04
  1.57133309E-04 -7.16368856E-16 -9.71442977E-05 -5.04534740E-05 -8.59859805E-05
  2.70432381E-15  2.72505653E-04  4.26709218E-04  2.46567028E-05 -7.52635703E-15
 -5.56569185E-05  9.01377976E-16 -2.07928111E-16  4.18578064E-05  6.48004344E-05
  7.94557857E-05 -3.84628166E-05  1.14987253E-04  1.94284875E-04  7.94679674E-06
  1.95358856E-05  3.61322415E-16 -2.88057978E-01 -2.38547045E-01 -5.19593504E-06
  1.82255549E-04  7.71052942E-17 -2.21673233E-03 -2.01502555E-04 -7.98001278E-05
  1.91126894E-16  2.53862569E-04  8.17565313E-05  1.01593197E-05 -7.04112681E-16
 -7.15797363E-04 -6.90675315E-04 -7.87160382E-04  2.29236458E-15  1.45930564E-04
 -3.09296810E-16 -8.23519484E-16 -4.86747706E-05 -4.47031709E-06 -2.07965979E-04
  1.00781477E-04 -3.00760969E-04 -5.08675177E-04 -1.28376405E-05  4.48886659E-06
 -4.60508797E-16  3.56567791E-01  2.95281514E-01  1.79343139E-13  1.78864246E-04
 -8.67711253E-17  2.74391744E-03  1.60628791E-13 -2.26768347E-04  2.85404960E-16
 -3.14218302E-04  3.80461480E-14  6.98403488E-05 -2.92126072E-15  8.86228764E-04
  4.71680787E-13 -1.28974498E-03  9.48887503E-15 -1.80726093E-04  4.89300307E-17
  5.59661666E-16  1.32252551E-05 -7.31168947E-14  2.57424794E-04 -1.24704156E-04
  3.72054728E-04  6.29111023E-04  1.61047152E-14 -4.85293376E-06 -3.02667268E-16
  3.38647399E-01  2.80441180E-01  1.79496013E-04 -3.35173355E-06  5.84249109E-17
  2.60620042E-03 -1.85823136E-04 -1.24581737E-04  3.41128223E-16 -2.98469207E-04
  5.30146908E-05  5.04989124E-05 -2.72075220E-15  8.41065493E-04 -1.15004897E-03
 -4.26661291E-04  2.68569836E-15 -1.71501439E-04  2.28324856E-16  3.41325453E-16
 -2.50160371E-05  1.26987176E-05  2.44497077E-04 -1.18365753E-04  3.53581253E-04
  5.97848191E-04 -2.31783208E-06 -7.92641806E-06  2.47540255E-16  2.09700149E-01
  1.73657278E-01  1.85997045E-04  4.94528723E-06  1.38727349E-18  1.61346339E-03
  5.07213720E-05  2.01874139E-04 -2.70310131E-16 -1.84681268E-04 -4.27582633E-05
 -8.19679976E-05  2.14206640E-15  5.22650446E-04 -3.39089985E-04  6.91055074E-04
 -8.04541557E-16 -1.06371146E-04  1.39830510E-16  4.29670707E-16 -5.98266395E-05
  2.75359945E-05  1.51378542E-04 -7.32849560E-05  2.18610137E-04  3.69826071E-04
  1.27752605E-05  1.28227531E-05 -2.42932925E-16 -3.38647399E-01 -2.80441180E-01
  1.79496013E-04  3.35173320E-06  3.15849097E-17 -2.60620042E-03 -1.85823136E-04
  1.24581737E-04 -7.08102587E-17  2.98469207E-04  5.30146900E-05 -5.04989120E-05
 -5.03003193E-16 -8.41065539E-04 -1.15004899E-03  4.26661294E-04  2.33809232E-15
  1.71501439E-04 -1.24875791E-16  1.41904327E-17  2.50160370E-05  1.26987175E-05
 -2.44497077E-04  1.18365752E-04 -3.53581255E-04 -5.97848196E-04 -2.31783212E-06
  7.92641803E-06 -8.86103457E-17 -2.09700149E-01 -1.73657278E-01  1.85997045E-04
 -4.94528756E-06 -1.51273719E-16 -1.61346338E-03  5.07213724E-05 -2.01874138E-04
  2.76640384E-16  1.84681268E-04 -4.27582634E-05  8.19679980E-05 -5.33918455E-16
 -5.22650428E-04 -3.39089982E-04 -6.91055067E-04 -1.58819433E-15  1.06371146E-04
 -1.07454477E-16 -9.38282646E-18  5.98266395E-05  2.75359945E-05 -1.51378542E-04
  7.32849558E-05 -2.18610136E-04 -3.69826069E-04  1.27752606E-05 -1.28227531E-05
  7.20243880E-18 -3.19946658E-10 -2.64956292E-10  1.89432457E-04 -1.71684028E-13
  4.70328626E-17 -2.43082789E-12  1.97375906E-04  2.31573528E-13 -5.74857760E-17
  3.31466676E-13 -1.02348334E-04 -5.87680965E-13  1.27541162E-15  2.72191876E-11
  1.63264005E-04 -6.91323598E-12 -2.68562380E-15  1.76627871E-13  2.84469627E-16
 -2.70785421E-16 -2.08530913E-15 -8.09454805E-05 -2.34635127E-13  2.02051922E-13
  2.40238226E-13  1.98918635E-12  2.21207862E-05 -1.74936029E-14  5.09959125E-17
 -2.09769057E-01 -1.73756058E-01 -1.83369158E-04 -1.59524314E-04  1.12866799E-16
 -1.40050658E-03  2.13233666E-04 -1.79747234E-05  2.41654322E-16  2.75195267E-04
 -2.66357714E-04 -9.63743964E-05 -4.66458740E-16 -1.70816788E-03  5.04976397E-04
  2.41540341E-04  7.38050590E-16  1.75501606E-04 -1.20621185E-16  5.44420192E-18